
Host: asaxlogin2.asc.edu

Timers On : Mon Oct 21 09:28:28 2024
Timers Off: Mon Oct 21 09:28:29 2024

Wall Time:        1.02 seconds

                                                       Time (seconds)
Module                                       User      System        Wall        Calls

--------------------------------------------------------------------------------------

**************************************************************************************
