
Host: asax029.asc.edu

Timers On : Tue Dec  3 15:12:11 2024
Timers Off: Tue Dec  3 15:12:36 2024

Wall Time:       24.96 seconds

                                                       Time (seconds)
Module                                       User      System        Wall        Calls
Total PK formation time             :      6.833u      0.083s      1.234w      2 calls
Libint2ERI::Libint2ERI              :      0.333u      0.033s      0.154w     12 calls
HF: Form core H                     :      0.250u      0.000s      0.050w      2 calls
HF: Form S/X                        :      0.100u      0.000s      0.018w      2 calls
HF: Guess                           :      0.417u      0.050s      0.069w      2 calls
SAD Guess                           :      0.383u      0.050s      0.062w      2 calls
HF: Form G                          :      0.633u      0.017s      0.101w     20 calls
JK: D                               :      0.017u      0.000s      0.000w     20 calls
JK: USO2AO                          :      0.000u      0.000s      0.000w     20 calls
JK: JK                              :      0.600u      0.017s      0.099w     20 calls
PK computes JK                      :      0.600u      0.017s      0.099w     20 calls
JK: AO2USO                          :      0.000u      0.000s      0.000w     20 calls
HF: Form F                          :      0.000u      0.000s      0.000w     20 calls
HF: Form D                          :      0.000u      0.000s      0.000w     20 calls
HF: DIIS                            :      1.933u      0.117s      0.905w     18 calls
HF: Form C                          :      0.133u      0.000s      0.017w     18 calls
trans_ints                          :      1.483u      0.183s      0.551w      1 calls
Trans (OV|OV)                       :      1.400u      0.167s      0.525w      1 calls
Sort chem -> phys                   :      0.017u      0.017s      0.009w      1 calls
Sort (OV|OV) -> <OO|VV>             :      0.017u      0.017s      0.009w      1 calls
Trans OEI                           :      0.000u      0.000s      0.000w      1 calls
Build Denominators                  :      0.033u      0.000s      0.005w      1 calls
T2(1)                               :      0.533u      0.067s      0.108w      1 calls
MP2 Energy                          :      0.350u      0.033s      0.071w      1 calls

--------------------------------------------------------------------------------------
Total PK formation time             :      6.833u      0.083s      1.234w      2 calls
| Libint2ERI::Libint2ERI            :      0.183u      0.017s      0.131w     10 calls
HF: Form core H                     :      0.250u      0.000s      0.050w      2 calls
HF: Form S/X                        :      0.100u      0.000s      0.018w      2 calls
HF: Guess                           :      0.417u      0.050s      0.069w      2 calls
| SAD Guess                         :      0.383u      0.050s      0.062w      2 calls
HF: Form G                          :      0.633u      0.017s      0.101w     20 calls
| JK: D                             :      0.017u      0.000s      0.000w     20 calls
| JK: USO2AO                        :      0.000u      0.000s      0.000w     20 calls
| JK: JK                            :      0.600u      0.017s      0.099w     20 calls
| | PK computes JK                  :      0.600u      0.017s      0.099w     20 calls
| JK: AO2USO                        :      0.000u      0.000s      0.000w     20 calls
HF: Form F                          :      0.000u      0.000s      0.000w     20 calls
HF: Form D                          :      0.000u      0.000s      0.000w     20 calls
HF: DIIS                            :      1.933u      0.117s      0.905w     18 calls
HF: Form C                          :      0.133u      0.000s      0.017w     18 calls
Libint2ERI::Libint2ERI              :      0.150u      0.017s      0.023w      2 calls
trans_ints                          :      1.483u      0.183s      0.551w      1 calls
| Trans (OV|OV)                     :      1.400u      0.167s      0.525w      1 calls
| Sort chem -> phys                 :      0.017u      0.017s      0.009w      1 calls
| | Sort (OV|OV) -> <OO|VV>         :      0.017u      0.017s      0.009w      1 calls
| Trans OEI                         :      0.000u      0.000s      0.000w      1 calls
| Build Denominators                :      0.033u      0.000s      0.005w      1 calls
T2(1)                               :      0.533u      0.067s      0.108w      1 calls
MP2 Energy                          :      0.350u      0.033s      0.071w      1 calls

**************************************************************************************

Host: asax029.asc.edu

Timers On : Tue Dec  3 15:12:37 2024
Timers Off: Tue Dec  3 15:12:39 2024

Wall Time:        2.46 seconds

                                                       Time (seconds)
Module                                       User      System        Wall        Calls
Total PK formation time             :      0.267u      0.050s      0.049w      2 calls
Libint2ERI::Libint2ERI              :      0.200u      0.033s      0.031w     12 calls
HF: Form core H                     :      0.117u      0.000s      0.023w      2 calls
HF: Form S/X                        :      0.000u      0.000s      0.001w      2 calls
HF: Guess                           :      0.250u      0.033s      0.043w      2 calls
SAD Guess                           :      0.233u      0.033s      0.041w      2 calls
HF: Form G                          :      0.000u      0.000s      0.002w     18 calls
JK: D                               :      0.000u      0.000s      0.000w     18 calls
JK: USO2AO                          :      0.000u      0.000s      0.000w     18 calls
JK: JK                              :      0.000u      0.000s      0.001w     18 calls
PK computes JK                      :      0.000u      0.000s      0.001w     18 calls
JK: AO2USO                          :      0.000u      0.000s      0.000w     18 calls
HF: Form F                          :      0.000u      0.000s      0.000w     18 calls
HF: Form D                          :      0.000u      0.000s      0.000w     18 calls
HF: DIIS                            :      1.783u      0.100s      0.382w     16 calls
HF: Form C                          :      0.033u      0.000s      0.005w     16 calls
trans_ints                          :      0.433u      0.000s      0.088w      1 calls
Trans (OV|OV)                       :      0.400u      0.000s      0.080w      1 calls
Sort chem -> phys                   :      0.000u      0.000s      0.000w      1 calls
Sort (OV|OV) -> <OO|VV>             :      0.000u      0.000s      0.000w      1 calls
Trans OEI                           :      0.000u      0.000s      0.000w      1 calls
Build Denominators                  :      0.000u      0.000s      0.000w      1 calls
T2(1)                               :      0.083u      0.000s      0.014w      1 calls
MP2 Energy                          :      0.050u      0.017s      0.015w      1 calls

--------------------------------------------------------------------------------------
Total PK formation time             :      0.267u      0.050s      0.049w      2 calls
| Libint2ERI::Libint2ERI            :      0.183u      0.033s      0.028w     10 calls
HF: Form core H                     :      0.117u      0.000s      0.023w      2 calls
HF: Form S/X                        :      0.000u      0.000s      0.001w      2 calls
HF: Guess                           :      0.250u      0.033s      0.043w      2 calls
| SAD Guess                         :      0.233u      0.033s      0.041w      2 calls
HF: Form G                          :      0.000u      0.000s      0.002w     18 calls
| JK: D                             :      0.000u      0.000s      0.000w     18 calls
| JK: USO2AO                        :      0.000u      0.000s      0.000w     18 calls
| JK: JK                            :      0.000u      0.000s      0.001w     18 calls
| | PK computes JK                  :      0.000u      0.000s      0.001w     18 calls
| JK: AO2USO                        :      0.000u      0.000s      0.000w     18 calls
HF: Form F                          :      0.000u      0.000s      0.000w     18 calls
HF: Form D                          :      0.000u      0.000s      0.000w     18 calls
HF: DIIS                            :      1.783u      0.100s      0.382w     16 calls
HF: Form C                          :      0.033u      0.000s      0.005w     16 calls
Libint2ERI::Libint2ERI              :      0.017u      0.000s      0.003w      2 calls
trans_ints                          :      0.433u      0.000s      0.088w      1 calls
| Trans (OV|OV)                     :      0.400u      0.000s      0.080w      1 calls
| Sort chem -> phys                 :      0.000u      0.000s      0.000w      1 calls
| | Sort (OV|OV) -> <OO|VV>         :      0.000u      0.000s      0.000w      1 calls
| Trans OEI                         :      0.000u      0.000s      0.000w      1 calls
| Build Denominators                :      0.000u      0.000s      0.000w      1 calls
T2(1)                               :      0.083u      0.000s      0.014w      1 calls
MP2 Energy                          :      0.050u      0.017s      0.015w      1 calls

**************************************************************************************

Host: asax029.asc.edu

Timers On : Tue Dec  3 15:12:39 2024
Timers Off: Tue Dec  3 15:12:42 2024

Wall Time:        2.96 seconds

                                                       Time (seconds)
Module                                       User      System        Wall        Calls
Total PK formation time             :      0.150u      0.033s      0.053w      2 calls
Libint2ERI::Libint2ERI              :      0.033u      0.033s      0.034w     12 calls
HF: Form core H                     :      0.100u      0.000s      0.020w      2 calls
HF: Form S/X                        :      0.000u      0.000s      0.001w      2 calls
HF: Guess                           :      0.367u      0.017s      0.058w      2 calls
SAD Guess                           :      0.350u      0.017s      0.056w      2 calls
HF: Form G                          :      0.000u      0.000s      0.003w     24 calls
JK: D                               :      0.000u      0.000s      0.000w     24 calls
JK: USO2AO                          :      0.000u      0.000s      0.000w     24 calls
JK: JK                              :      0.000u      0.000s      0.002w     24 calls
PK computes JK                      :      0.000u      0.000s      0.002w     24 calls
JK: AO2USO                          :      0.000u      0.000s      0.000w     24 calls
HF: Form F                          :      0.000u      0.000s      0.000w     24 calls
HF: Form D                          :      0.000u      0.000s      0.000w     24 calls
HF: DIIS                            :      1.917u      0.083s      0.405w     22 calls
HF: Form C                          :      0.067u      0.000s      0.007w     22 calls
trans_ints                          :      0.417u      0.017s      0.082w      1 calls
Trans (OV|OV)                       :      0.383u      0.017s      0.075w      1 calls
Sort chem -> phys                   :      0.000u      0.000s      0.000w      1 calls
Sort (OV|OV) -> <OO|VV>             :      0.000u      0.000s      0.000w      1 calls
Trans OEI                           :      0.000u      0.000s      0.000w      1 calls
Build Denominators                  :      0.000u      0.000s      0.000w      1 calls
T2(1)                               :      0.067u      0.000s      0.014w      1 calls
MP2 Energy                          :      0.100u      0.017s      0.021w      1 calls

--------------------------------------------------------------------------------------
Total PK formation time             :      0.150u      0.033s      0.053w      2 calls
| Libint2ERI::Libint2ERI            :      0.000u      0.033s      0.031w     10 calls
HF: Form core H                     :      0.100u      0.000s      0.020w      2 calls
HF: Form S/X                        :      0.000u      0.000s      0.001w      2 calls
HF: Guess                           :      0.367u      0.017s      0.058w      2 calls
| SAD Guess                         :      0.350u      0.017s      0.056w      2 calls
HF: Form G                          :      0.000u      0.000s      0.003w     24 calls
| JK: D                             :      0.000u      0.000s      0.000w     24 calls
| JK: USO2AO                        :      0.000u      0.000s      0.000w     24 calls
| JK: JK                            :      0.000u      0.000s      0.002w     24 calls
| | PK computes JK                  :      0.000u      0.000s      0.002w     24 calls
| JK: AO2USO                        :      0.000u      0.000s      0.000w     24 calls
HF: Form F                          :      0.000u      0.000s      0.000w     24 calls
HF: Form D                          :      0.000u      0.000s      0.000w     24 calls
HF: DIIS                            :      1.917u      0.083s      0.405w     22 calls
HF: Form C                          :      0.067u      0.000s      0.007w     22 calls
Libint2ERI::Libint2ERI              :      0.033u      0.000s      0.004w      2 calls
trans_ints                          :      0.417u      0.017s      0.082w      1 calls
| Trans (OV|OV)                     :      0.383u      0.017s      0.075w      1 calls
| Sort chem -> phys                 :      0.000u      0.000s      0.000w      1 calls
| | Sort (OV|OV) -> <OO|VV>         :      0.000u      0.000s      0.000w      1 calls
| Trans OEI                         :      0.000u      0.000s      0.000w      1 calls
| Build Denominators                :      0.000u      0.000s      0.000w      1 calls
T2(1)                               :      0.067u      0.000s      0.014w      1 calls
MP2 Energy                          :      0.100u      0.017s      0.021w      1 calls

**************************************************************************************

Host: asax029.asc.edu

Timers On : Tue Dec  3 15:12:43 2024
Timers Off: Tue Dec  3 15:12:54 2024

Wall Time:       11.16 seconds

                                                       Time (seconds)
Module                                       User      System        Wall        Calls
Total PK formation time             :      3.300u      0.050s      0.584w      2 calls
Libint2ERI::Libint2ERI              :      0.217u      0.017s      0.106w     12 calls
HF: Form core H                     :      0.267u      0.017s      0.056w      2 calls
HF: Form S/X                        :      0.017u      0.000s      0.002w      2 calls
HF: Guess                           :      0.550u      0.033s      0.089w      2 calls
SAD Guess                           :      0.550u      0.033s      0.086w      2 calls
HF: Form G                          :      0.250u      0.000s      0.041w     24 calls
JK: D                               :      0.000u      0.000s      0.000w     24 calls
JK: USO2AO                          :      0.000u      0.000s      0.000w     24 calls
JK: JK                              :      0.250u      0.000s      0.040w     24 calls
PK computes JK                      :      0.233u      0.000s      0.040w     24 calls
JK: AO2USO                          :      0.000u      0.000s      0.000w     24 calls
HF: Form F                          :      0.000u      0.000s      0.000w     24 calls
HF: Form D                          :      0.000u      0.000s      0.000w     24 calls
HF: DIIS                            :      2.000u      0.067s      0.417w     22 calls
HF: Form C                          :      0.083u      0.000s      0.016w     22 calls
trans_ints                          :      1.250u      0.100s      0.320w      1 calls
Trans (OV|OV)                       :      1.217u      0.100s      0.306w      1 calls
Sort chem -> phys                   :      0.000u      0.000s      0.003w      1 calls
Sort (OV|OV) -> <OO|VV>             :      0.000u      0.000s      0.003w      1 calls
Trans OEI                           :      0.000u      0.000s      0.000w      1 calls
Build Denominators                  :      0.017u      0.000s      0.002w      1 calls
T2(1)                               :      0.167u      0.033s      0.032w      1 calls
MP2 Energy                          :      0.100u      0.000s      0.020w      1 calls

--------------------------------------------------------------------------------------
Total PK formation time             :      3.300u      0.050s      0.584w      2 calls
| Libint2ERI::Libint2ERI            :      0.117u      0.017s      0.090w     10 calls
HF: Form core H                     :      0.267u      0.017s      0.056w      2 calls
HF: Form S/X                        :      0.017u      0.000s      0.002w      2 calls
HF: Guess                           :      0.550u      0.033s      0.089w      2 calls
| SAD Guess                         :      0.550u      0.033s      0.086w      2 calls
HF: Form G                          :      0.250u      0.000s      0.041w     24 calls
| JK: D                             :      0.000u      0.000s      0.000w     24 calls
| JK: USO2AO                        :      0.000u      0.000s      0.000w     24 calls
| JK: JK                            :      0.250u      0.000s      0.040w     24 calls
| | PK computes JK                  :      0.233u      0.000s      0.040w     24 calls
| JK: AO2USO                        :      0.000u      0.000s      0.000w     24 calls
HF: Form F                          :      0.000u      0.000s      0.000w     24 calls
HF: Form D                          :      0.000u      0.000s      0.000w     24 calls
HF: DIIS                            :      2.000u      0.067s      0.417w     22 calls
HF: Form C                          :      0.083u      0.000s      0.016w     22 calls
Libint2ERI::Libint2ERI              :      0.100u      0.000s      0.016w      2 calls
trans_ints                          :      1.250u      0.100s      0.320w      1 calls
| Trans (OV|OV)                     :      1.217u      0.100s      0.306w      1 calls
| Sort chem -> phys                 :      0.000u      0.000s      0.003w      1 calls
| | Sort (OV|OV) -> <OO|VV>         :      0.000u      0.000s      0.003w      1 calls
| Trans OEI                         :      0.000u      0.000s      0.000w      1 calls
| Build Denominators                :      0.017u      0.000s      0.002w      1 calls
T2(1)                               :      0.167u      0.033s      0.032w      1 calls
MP2 Energy                          :      0.100u      0.000s      0.020w      1 calls

**************************************************************************************

Host: asax029.asc.edu

Timers On : Tue Dec  3 15:12:54 2024
Timers Off: Tue Dec  3 15:12:57 2024

Wall Time:        2.68 seconds

                                                       Time (seconds)
Module                                       User      System        Wall        Calls
Total PK formation time             :      0.183u      0.050s      0.033w      2 calls
Libint2ERI::Libint2ERI              :      0.133u      0.033s      0.026w     12 calls
HF: Form core H                     :      0.233u      0.000s      0.048w      2 calls
HF: Form S/X                        :      0.000u      0.000s      0.000w      2 calls
HF: Guess                           :      0.367u      0.050s      0.062w      2 calls
SAD Guess                           :      0.350u      0.050s      0.060w      2 calls
HF: Form G                          :      0.000u      0.000s      0.001w     22 calls
JK: D                               :      0.000u      0.000s      0.000w     22 calls
JK: USO2AO                          :      0.000u      0.000s      0.000w     22 calls
JK: JK                              :      0.000u      0.000s      0.000w     22 calls
PK computes JK                      :      0.000u      0.000s      0.000w     22 calls
JK: AO2USO                          :      0.000u      0.000s      0.000w     22 calls
HF: Form F                          :      0.000u      0.000s      0.000w     22 calls
HF: Form D                          :      0.000u      0.000s      0.000w     22 calls
HF: DIIS                            :      1.883u      0.100s      0.391w     20 calls
HF: Form C                          :      0.033u      0.000s      0.006w     20 calls
trans_ints                          :      0.483u      0.017s      0.098w      1 calls
Trans (OV|OV)                       :      0.450u      0.017s      0.090w      1 calls
Sort chem -> phys                   :      0.000u      0.000s      0.000w      1 calls
Sort (OV|OV) -> <OO|VV>             :      0.000u      0.000s      0.000w      1 calls
Trans OEI                           :      0.000u      0.000s      0.000w      1 calls
Build Denominators                  :      0.000u      0.000s      0.000w      1 calls
T2(1)                               :      0.067u      0.017s      0.015w      1 calls
MP2 Energy                          :      0.133u      0.000s      0.028w      1 calls

--------------------------------------------------------------------------------------
Total PK formation time             :      0.183u      0.050s      0.033w      2 calls
| Libint2ERI::Libint2ERI            :      0.133u      0.017s      0.023w     10 calls
HF: Form core H                     :      0.233u      0.000s      0.048w      2 calls
HF: Form S/X                        :      0.000u      0.000s      0.000w      2 calls
HF: Guess                           :      0.367u      0.050s      0.062w      2 calls
| SAD Guess                         :      0.350u      0.050s      0.060w      2 calls
HF: Form G                          :      0.000u      0.000s      0.001w     22 calls
| JK: D                             :      0.000u      0.000s      0.000w     22 calls
| JK: USO2AO                        :      0.000u      0.000s      0.000w     22 calls
| JK: JK                            :      0.000u      0.000s      0.000w     22 calls
| | PK computes JK                  :      0.000u      0.000s      0.000w     22 calls
| JK: AO2USO                        :      0.000u      0.000s      0.000w     22 calls
HF: Form F                          :      0.000u      0.000s      0.000w     22 calls
HF: Form D                          :      0.000u      0.000s      0.000w     22 calls
HF: DIIS                            :      1.883u      0.100s      0.391w     20 calls
HF: Form C                          :      0.033u      0.000s      0.006w     20 calls
Libint2ERI::Libint2ERI              :      0.000u      0.017s      0.003w      2 calls
trans_ints                          :      0.483u      0.017s      0.098w      1 calls
| Trans (OV|OV)                     :      0.450u      0.017s      0.090w      1 calls
| Sort chem -> phys                 :      0.000u      0.000s      0.000w      1 calls
| | Sort (OV|OV) -> <OO|VV>         :      0.000u      0.000s      0.000w      1 calls
| Trans OEI                         :      0.000u      0.000s      0.000w      1 calls
| Build Denominators                :      0.000u      0.000s      0.000w      1 calls
T2(1)                               :      0.067u      0.017s      0.015w      1 calls
MP2 Energy                          :      0.133u      0.000s      0.028w      1 calls

**************************************************************************************

Host: asax029.asc.edu

Timers On : Tue Dec  3 15:12:57 2024
Timers Off: Tue Dec  3 15:14:38 2024

Wall Time:      101.11 seconds

                                                       Time (seconds)
Module                                       User      System        Wall        Calls
Total PK formation time             :     34.200u      0.283s      6.939w      2 calls
Libint2ERI::Libint2ERI              :      1.333u      0.067s      0.568w     12 calls
HF: Form core H                     :      0.300u      0.000s      0.054w      2 calls
HF: Form S/X                        :      0.033u      0.000s      0.007w      2 calls
HF: Guess                           :      0.417u      0.050s      0.068w      2 calls
SAD Guess                           :      0.400u      0.050s      0.066w      2 calls
HF: Form G                          :      5.917u      0.100s      0.905w     20 calls
JK: D                               :      0.000u      0.000s      0.001w     20 calls
JK: USO2AO                          :      0.000u      0.000s      0.000w     20 calls
JK: JK                              :      5.900u      0.100s      0.901w     20 calls
PK computes JK                      :      5.900u      0.100s      0.901w     20 calls
JK: AO2USO                          :      0.000u      0.000s      0.000w     20 calls
HF: Form F                          :      0.000u      0.000s      0.001w     20 calls
HF: Form D                          :      0.017u      0.000s      0.001w     20 calls
HF: DIIS                            :      2.167u      0.067s      0.433w     18 calls
HF: Form C                          :      0.300u      0.000s      0.045w     18 calls
trans_ints                          :      6.317u      1.617s      4.192w      1 calls
Trans (OV|OV)                       :      6.133u      1.550s      4.115w      1 calls
Sort chem -> phys                   :      0.017u      0.033s      0.043w      1 calls
Sort (OV|OV) -> <OO|VV>             :      0.017u      0.033s      0.043w      1 calls
Trans OEI                           :      0.000u      0.000s      0.001w      1 calls
Build Denominators                  :      0.150u      0.033s      0.025w      1 calls
T2(1)                               :      0.933u      0.400s      0.327w      1 calls
MP2 Energy                          :      0.050u      0.067s      0.082w      1 calls

--------------------------------------------------------------------------------------
Total PK formation time             :     34.200u      0.283s      6.939w      2 calls
| Libint2ERI::Libint2ERI            :      0.733u      0.050s      0.476w     10 calls
HF: Form core H                     :      0.300u      0.000s      0.054w      2 calls
HF: Form S/X                        :      0.033u      0.000s      0.007w      2 calls
HF: Guess                           :      0.417u      0.050s      0.068w      2 calls
| SAD Guess                         :      0.400u      0.050s      0.066w      2 calls
HF: Form G                          :      5.917u      0.100s      0.905w     20 calls
| JK: D                             :      0.000u      0.000s      0.001w     20 calls
| JK: USO2AO                        :      0.000u      0.000s      0.000w     20 calls
| JK: JK                            :      5.900u      0.100s      0.901w     20 calls
| | PK computes JK                  :      5.900u      0.100s      0.901w     20 calls
| JK: AO2USO                        :      0.000u      0.000s      0.000w     20 calls
HF: Form F                          :      0.000u      0.000s      0.001w     20 calls
HF: Form D                          :      0.017u      0.000s      0.001w     20 calls
HF: DIIS                            :      2.167u      0.067s      0.433w     18 calls
HF: Form C                          :      0.300u      0.000s      0.045w     18 calls
Libint2ERI::Libint2ERI              :      0.600u      0.017s      0.091w      2 calls
trans_ints                          :      6.317u      1.617s      4.192w      1 calls
| Trans (OV|OV)                     :      6.133u      1.550s      4.115w      1 calls
| Sort chem -> phys                 :      0.017u      0.033s      0.043w      1 calls
| | Sort (OV|OV) -> <OO|VV>         :      0.017u      0.033s      0.043w      1 calls
| Trans OEI                         :      0.000u      0.000s      0.001w      1 calls
| Build Denominators                :      0.150u      0.033s      0.025w      1 calls
T2(1)                               :      0.933u      0.400s      0.327w      1 calls
MP2 Energy                          :      0.050u      0.067s      0.082w      1 calls

**************************************************************************************

Host: asax029.asc.edu

Timers On : Tue Dec  3 15:14:39 2024
Timers Off: Tue Dec  3 15:14:42 2024

Wall Time:        3.19 seconds

                                                       Time (seconds)
Module                                       User      System        Wall        Calls
Total PK formation time             :      0.817u      0.067s      0.168w      2 calls
Libint2ERI::Libint2ERI              :      0.300u      0.067s      0.094w     12 calls
HF: Form core H                     :      0.300u      0.000s      0.061w      2 calls
HF: Form S/X                        :      0.000u      0.000s      0.001w      2 calls
HF: Guess                           :      0.317u      0.033s      0.052w      2 calls
SAD Guess                           :      0.300u      0.033s      0.049w      2 calls
HF: Form G                          :      0.033u      0.000s      0.004w     18 calls
JK: D                               :      0.000u      0.000s      0.000w     18 calls
JK: USO2AO                          :      0.000u      0.000s      0.000w     18 calls
JK: JK                              :      0.033u      0.000s      0.003w     18 calls
PK computes JK                      :      0.033u      0.000s      0.003w     18 calls
JK: AO2USO                          :      0.000u      0.000s      0.000w     18 calls
HF: Form F                          :      0.000u      0.000s      0.000w     18 calls
HF: Form D                          :      0.000u      0.000s      0.000w     18 calls
HF: DIIS                            :      1.933u      0.083s      0.411w     16 calls
HF: Form C                          :      0.000u      0.000s      0.006w     16 calls
trans_ints                          :      0.583u      0.033s      0.120w      1 calls
Trans (OV|OV)                       :      0.450u      0.017s      0.091w      1 calls
Sort chem -> phys                   :      0.000u      0.000s      0.000w      1 calls
Sort (OV|OV) -> <OO|VV>             :      0.000u      0.000s      0.000w      1 calls
Trans OEI                           :      0.000u      0.000s      0.000w      1 calls
Build Denominators                  :      0.000u      0.000s      0.000w      1 calls
T2(1)                               :      0.067u      0.000s      0.013w      1 calls
MP2 Energy                          :      0.067u      0.000s      0.014w      1 calls

--------------------------------------------------------------------------------------
Total PK formation time             :      0.817u      0.067s      0.168w      2 calls
| Libint2ERI::Libint2ERI            :      0.217u      0.067s      0.081w     10 calls
HF: Form core H                     :      0.300u      0.000s      0.061w      2 calls
HF: Form S/X                        :      0.000u      0.000s      0.001w      2 calls
HF: Guess                           :      0.317u      0.033s      0.052w      2 calls
| SAD Guess                         :      0.300u      0.033s      0.049w      2 calls
HF: Form G                          :      0.033u      0.000s      0.004w     18 calls
| JK: D                             :      0.000u      0.000s      0.000w     18 calls
| JK: USO2AO                        :      0.000u      0.000s      0.000w     18 calls
| JK: JK                            :      0.033u      0.000s      0.003w     18 calls
| | PK computes JK                  :      0.033u      0.000s      0.003w     18 calls
| JK: AO2USO                        :      0.000u      0.000s      0.000w     18 calls
HF: Form F                          :      0.000u      0.000s      0.000w     18 calls
HF: Form D                          :      0.000u      0.000s      0.000w     18 calls
HF: DIIS                            :      1.933u      0.083s      0.411w     16 calls
HF: Form C                          :      0.000u      0.000s      0.006w     16 calls
Libint2ERI::Libint2ERI              :      0.083u      0.000s      0.014w      2 calls
trans_ints                          :      0.583u      0.033s      0.120w      1 calls
| Trans (OV|OV)                     :      0.450u      0.017s      0.091w      1 calls
| Sort chem -> phys                 :      0.000u      0.000s      0.000w      1 calls
| | Sort (OV|OV) -> <OO|VV>         :      0.000u      0.000s      0.000w      1 calls
| Trans OEI                         :      0.000u      0.000s      0.000w      1 calls
| Build Denominators                :      0.000u      0.000s      0.000w      1 calls
T2(1)                               :      0.067u      0.000s      0.013w      1 calls
MP2 Energy                          :      0.067u      0.000s      0.014w      1 calls

**************************************************************************************

Host: asax029.asc.edu

Timers On : Tue Dec  3 15:14:43 2024
Timers Off: Tue Dec  3 15:14:47 2024

Wall Time:        4.15 seconds

                                                       Time (seconds)
Module                                       User      System        Wall        Calls
Total PK formation time             :      0.817u      0.033s      0.207w      2 calls
Libint2ERI::Libint2ERI              :      0.183u      0.033s      0.104w     12 calls
HF: Form core H                     :      0.100u      0.017s      0.020w      2 calls
HF: Form S/X                        :      0.000u      0.000s      0.001w      2 calls
HF: Guess                           :      0.450u      0.017s      0.071w      2 calls
SAD Guess                           :      0.433u      0.017s      0.069w      2 calls
HF: Form G                          :      0.050u      0.000s      0.010w     24 calls
JK: D                               :      0.000u      0.000s      0.000w     24 calls
JK: USO2AO                          :      0.000u      0.000s      0.000w     24 calls
JK: JK                              :      0.050u      0.000s      0.009w     24 calls
PK computes JK                      :      0.050u      0.000s      0.009w     24 calls
JK: AO2USO                          :      0.000u      0.000s      0.000w     24 calls
HF: Form F                          :      0.000u      0.000s      0.000w     24 calls
HF: Form D                          :      0.000u      0.000s      0.000w     24 calls
HF: DIIS                            :      2.000u      0.100s      0.414w     22 calls
HF: Form C                          :      0.050u      0.000s      0.010w     22 calls
trans_ints                          :      0.600u      0.050s      0.115w      1 calls
Trans (OV|OV)                       :      0.550u      0.033s      0.107w      1 calls
Sort chem -> phys                   :      0.017u      0.000s      0.000w      1 calls
Sort (OV|OV) -> <OO|VV>             :      0.017u      0.000s      0.000w      1 calls
Trans OEI                           :      0.000u      0.000s      0.000w      1 calls
Build Denominators                  :      0.000u      0.000s      0.000w      1 calls
T2(1)                               :      0.067u      0.000s      0.016w      1 calls
MP2 Energy                          :      0.067u      0.017s      0.014w      1 calls

--------------------------------------------------------------------------------------
Total PK formation time             :      0.817u      0.033s      0.207w      2 calls
| Libint2ERI::Libint2ERI            :      0.083u      0.033s      0.090w     10 calls
HF: Form core H                     :      0.100u      0.017s      0.020w      2 calls
HF: Form S/X                        :      0.000u      0.000s      0.001w      2 calls
HF: Guess                           :      0.450u      0.017s      0.071w      2 calls
| SAD Guess                         :      0.433u      0.017s      0.069w      2 calls
HF: Form G                          :      0.050u      0.000s      0.010w     24 calls
| JK: D                             :      0.000u      0.000s      0.000w     24 calls
| JK: USO2AO                        :      0.000u      0.000s      0.000w     24 calls
| JK: JK                            :      0.050u      0.000s      0.009w     24 calls
| | PK computes JK                  :      0.050u      0.000s      0.009w     24 calls
| JK: AO2USO                        :      0.000u      0.000s      0.000w     24 calls
HF: Form F                          :      0.000u      0.000s      0.000w     24 calls
HF: Form D                          :      0.000u      0.000s      0.000w     24 calls
HF: DIIS                            :      2.000u      0.100s      0.414w     22 calls
HF: Form C                          :      0.050u      0.000s      0.010w     22 calls
Libint2ERI::Libint2ERI              :      0.100u      0.000s      0.014w      2 calls
trans_ints                          :      0.600u      0.050s      0.115w      1 calls
| Trans (OV|OV)                     :      0.550u      0.033s      0.107w      1 calls
| Sort chem -> phys                 :      0.017u      0.000s      0.000w      1 calls
| | Sort (OV|OV) -> <OO|VV>         :      0.017u      0.000s      0.000w      1 calls
| Trans OEI                         :      0.000u      0.000s      0.000w      1 calls
| Build Denominators                :      0.000u      0.000s      0.000w      1 calls
T2(1)                               :      0.067u      0.000s      0.016w      1 calls
MP2 Energy                          :      0.067u      0.017s      0.014w      1 calls

**************************************************************************************

Host: asax029.asc.edu

Timers On : Tue Dec  3 15:14:47 2024
Timers Off: Tue Dec  3 15:15:37 2024

Wall Time:       50.07 seconds

                                                       Time (seconds)
Module                                       User      System        Wall        Calls
Total PK formation time             :     18.733u      0.183s      4.032w      2 calls
Libint2ERI::Libint2ERI              :      1.000u      0.033s      0.418w     12 calls
HF: Form core H                     :      0.167u      0.000s      0.030w      2 calls
HF: Form S/X                        :      0.033u      0.000s      0.005w      2 calls
HF: Guess                           :      0.700u      0.033s      0.112w      2 calls
SAD Guess                           :      0.683u      0.033s      0.110w      2 calls
HF: Form G                          :      3.667u      0.083s      0.561w     26 calls
JK: D                               :      0.033u      0.000s      0.001w     26 calls
JK: USO2AO                          :      0.000u      0.000s      0.000w     26 calls
JK: JK                              :      3.633u      0.083s      0.558w     26 calls
PK computes JK                      :      3.633u      0.083s      0.558w     26 calls
JK: AO2USO                          :      0.000u      0.000s      0.000w     26 calls
HF: Form F                          :      0.000u      0.000s      0.001w     26 calls
HF: Form D                          :      0.000u      0.000s      0.001w     26 calls
HF: DIIS                            :      2.283u      0.100s      0.470w     24 calls
HF: Form C                          :      0.333u      0.000s      0.044w     24 calls
trans_ints                          :      3.733u      0.833s      2.208w      1 calls
Trans (OV|OV)                       :      3.633u      0.817s      2.169w      1 calls
Sort chem -> phys                   :      0.017u      0.017s      0.019w      1 calls
Sort (OV|OV) -> <OO|VV>             :      0.017u      0.017s      0.019w      1 calls
Trans OEI                           :      0.000u      0.000s      0.000w      1 calls
Build Denominators                  :      0.067u      0.000s      0.012w      1 calls
T2(1)                               :      0.817u      0.183s      0.156w      1 calls
MP2 Energy                          :      0.133u      0.050s      0.044w      1 calls

--------------------------------------------------------------------------------------
Total PK formation time             :     18.733u      0.183s      4.032w      2 calls
| Libint2ERI::Libint2ERI            :      0.550u      0.033s      0.351w     10 calls
HF: Form core H                     :      0.167u      0.000s      0.030w      2 calls
HF: Form S/X                        :      0.033u      0.000s      0.005w      2 calls
HF: Guess                           :      0.700u      0.033s      0.112w      2 calls
| SAD Guess                         :      0.683u      0.033s      0.110w      2 calls
HF: Form G                          :      3.667u      0.083s      0.561w     26 calls
| JK: D                             :      0.033u      0.000s      0.001w     26 calls
| JK: USO2AO                        :      0.000u      0.000s      0.000w     26 calls
| JK: JK                            :      3.633u      0.083s      0.558w     26 calls
| | PK computes JK                  :      3.633u      0.083s      0.558w     26 calls
| JK: AO2USO                        :      0.000u      0.000s      0.000w     26 calls
HF: Form F                          :      0.000u      0.000s      0.001w     26 calls
HF: Form D                          :      0.000u      0.000s      0.001w     26 calls
HF: DIIS                            :      2.283u      0.100s      0.470w     24 calls
HF: Form C                          :      0.333u      0.000s      0.044w     24 calls
Libint2ERI::Libint2ERI              :      0.450u      0.000s      0.067w      2 calls
trans_ints                          :      3.733u      0.833s      2.208w      1 calls
| Trans (OV|OV)                     :      3.633u      0.817s      2.169w      1 calls
| Sort chem -> phys                 :      0.017u      0.017s      0.019w      1 calls
| | Sort (OV|OV) -> <OO|VV>         :      0.017u      0.017s      0.019w      1 calls
| Trans OEI                         :      0.000u      0.000s      0.000w      1 calls
| Build Denominators                :      0.067u      0.000s      0.012w      1 calls
T2(1)                               :      0.817u      0.183s      0.156w      1 calls
MP2 Energy                          :      0.133u      0.050s      0.044w      1 calls

**************************************************************************************

Host: asax029.asc.edu

Timers On : Tue Dec  3 15:15:38 2024
Timers Off: Tue Dec  3 15:15:41 2024

Wall Time:        3.17 seconds

                                                       Time (seconds)
Module                                       User      System        Wall        Calls
Total PK formation time             :      0.183u      0.033s      0.079w      2 calls
Libint2ERI::Libint2ERI              :      0.100u      0.017s      0.061w     12 calls
HF: Form core H                     :      0.100u      0.017s      0.019w      2 calls
HF: Form S/X                        :      0.000u      0.000s      0.001w      2 calls
HF: Guess                           :      0.417u      0.033s      0.068w      2 calls
SAD Guess                           :      0.417u      0.033s      0.066w      2 calls
HF: Form G                          :      0.050u      0.000s      0.003w     22 calls
JK: D                               :      0.017u      0.000s      0.000w     22 calls
JK: USO2AO                          :      0.000u      0.000s      0.000w     22 calls
JK: JK                              :      0.033u      0.000s      0.003w     22 calls
PK computes JK                      :      0.033u      0.000s      0.003w     22 calls
JK: AO2USO                          :      0.000u      0.000s      0.000w     22 calls
HF: Form F                          :      0.000u      0.000s      0.000w     22 calls
HF: Form D                          :      0.000u      0.000s      0.000w     22 calls
HF: DIIS                            :      2.033u      0.083s      0.415w     20 calls
HF: Form C                          :      0.033u      0.000s      0.007w     20 calls
trans_ints                          :      0.983u      0.033s      0.213w      1 calls
Trans (OV|OV)                       :      0.967u      0.033s      0.205w      1 calls
Sort chem -> phys                   :      0.000u      0.000s      0.000w      1 calls
Sort (OV|OV) -> <OO|VV>             :      0.000u      0.000s      0.000w      1 calls
Trans OEI                           :      0.000u      0.000s      0.000w      1 calls
Build Denominators                  :      0.000u      0.000s      0.000w      1 calls
T2(1)                               :      0.067u      0.017s      0.016w      1 calls
MP2 Energy                          :      0.067u      0.000s      0.014w      1 calls

--------------------------------------------------------------------------------------
Total PK formation time             :      0.183u      0.033s      0.079w      2 calls
| Libint2ERI::Libint2ERI            :      0.050u      0.017s      0.054w     10 calls
HF: Form core H                     :      0.100u      0.017s      0.019w      2 calls
HF: Form S/X                        :      0.000u      0.000s      0.001w      2 calls
HF: Guess                           :      0.417u      0.033s      0.068w      2 calls
| SAD Guess                         :      0.417u      0.033s      0.066w      2 calls
HF: Form G                          :      0.050u      0.000s      0.003w     22 calls
| JK: D                             :      0.017u      0.000s      0.000w     22 calls
| JK: USO2AO                        :      0.000u      0.000s      0.000w     22 calls
| JK: JK                            :      0.033u      0.000s      0.003w     22 calls
| | PK computes JK                  :      0.033u      0.000s      0.003w     22 calls
| JK: AO2USO                        :      0.000u      0.000s      0.000w     22 calls
HF: Form F                          :      0.000u      0.000s      0.000w     22 calls
HF: Form D                          :      0.000u      0.000s      0.000w     22 calls
HF: DIIS                            :      2.033u      0.083s      0.415w     20 calls
HF: Form C                          :      0.033u      0.000s      0.007w     20 calls
Libint2ERI::Libint2ERI              :      0.050u      0.000s      0.007w      2 calls
trans_ints                          :      0.983u      0.033s      0.213w      1 calls
| Trans (OV|OV)                     :      0.967u      0.033s      0.205w      1 calls
| Sort chem -> phys                 :      0.000u      0.000s      0.000w      1 calls
| | Sort (OV|OV) -> <OO|VV>         :      0.000u      0.000s      0.000w      1 calls
| Trans OEI                         :      0.000u      0.000s      0.000w      1 calls
| Build Denominators                :      0.000u      0.000s      0.000w      1 calls
T2(1)                               :      0.067u      0.017s      0.016w      1 calls
MP2 Energy                          :      0.067u      0.000s      0.014w      1 calls

**************************************************************************************

Host: asax029.asc.edu

Timers On : Tue Dec  3 15:15:41 2024
Timers Off: Tue Dec  3 15:49:23 2024

Wall Time:     2021.55 seconds

                                                       Time (seconds)
Module                                       User      System        Wall        Calls
Total PK formation time             :    267.667u      4.100s     48.475w      2 calls
Libint2ERI::Libint2ERI              :      2.700u      0.117s      1.152w     12 calls
HF: Form core H                     :      0.367u      0.000s      0.060w      2 calls
HF: Form S/X                        :      0.400u      0.000s      0.063w      2 calls
HF: Guess                           :      0.583u      0.017s      0.095w      2 calls
SAD Guess                           :      0.567u      0.017s      0.091w      2 calls
HF: Form G                          :     50.283u      0.533s     19.028w     20 calls
JK: D                               :      0.000u      0.000s      0.004w     20 calls
JK: USO2AO                          :      0.000u      0.000s      0.000w     20 calls
JK: JK                              :     50.283u      0.533s     19.019w     20 calls
PK computes JK                      :     50.283u      0.533s     19.018w     20 calls
JK: AO2USO                          :      0.000u      0.000s      0.000w     20 calls
HF: Form F                          :      0.033u      0.000s      0.003w     20 calls
HF: Form D                          :      0.033u      0.000s      0.003w     20 calls
HF: DIIS                            :      2.850u      0.150s      0.563w     18 calls
HF: Form C                          :      2.033u      0.050s      0.324w     18 calls
trans_ints                          :    144.033u     17.683s     96.537w      1 calls
Trans (OV|OV)                       :    143.150u     17.283s     96.209w      1 calls
Sort chem -> phys                   :      0.067u      0.233s      0.177w      1 calls
Sort (OV|OV) -> <OO|VV>             :      0.067u      0.233s      0.177w      1 calls
Trans OEI                           :      0.033u      0.000s      0.004w      1 calls
Build Denominators                  :      0.750u      0.150s      0.138w      1 calls
T2(1)                               :      0.567u      1.850s      1.341w      1 calls
MP2 Energy                          :      0.183u      0.367s      0.351w      1 calls

--------------------------------------------------------------------------------------
Total PK formation time             :    267.667u      4.100s     48.475w      2 calls
| Libint2ERI::Libint2ERI            :      1.483u      0.067s      0.966w     10 calls
HF: Form core H                     :      0.367u      0.000s      0.060w      2 calls
HF: Form S/X                        :      0.400u      0.000s      0.063w      2 calls
HF: Guess                           :      0.583u      0.017s      0.095w      2 calls
| SAD Guess                         :      0.567u      0.017s      0.091w      2 calls
HF: Form G                          :     50.283u      0.533s     19.028w     20 calls
| JK: D                             :      0.000u      0.000s      0.004w     20 calls
| JK: USO2AO                        :      0.000u      0.000s      0.000w     20 calls
| JK: JK                            :     50.283u      0.533s     19.019w     20 calls
| | PK computes JK                  :     50.283u      0.533s     19.018w     20 calls
| JK: AO2USO                        :      0.000u      0.000s      0.000w     20 calls
HF: Form F                          :      0.033u      0.000s      0.003w     20 calls
HF: Form D                          :      0.033u      0.000s      0.003w     20 calls
HF: DIIS                            :      2.850u      0.150s      0.563w     18 calls
HF: Form C                          :      2.033u      0.050s      0.324w     18 calls
Libint2ERI::Libint2ERI              :      1.217u      0.050s      0.186w      2 calls
trans_ints                          :    144.033u     17.683s     96.537w      1 calls
| Trans (OV|OV)                     :    143.150u     17.283s     96.209w      1 calls
| Sort chem -> phys                 :      0.067u      0.233s      0.177w      1 calls
| | Sort (OV|OV) -> <OO|VV>         :      0.067u      0.233s      0.177w      1 calls
| Trans OEI                         :      0.033u      0.000s      0.004w      1 calls
| Build Denominators                :      0.750u      0.150s      0.138w      1 calls
T2(1)                               :      0.567u      1.850s      1.341w      1 calls
MP2 Energy                          :      0.183u      0.367s      0.351w      1 calls

**************************************************************************************

Host: asax029.asc.edu

Timers On : Tue Dec  3 15:49:24 2024
Timers Off: Tue Dec  3 15:49:29 2024

Wall Time:        5.65 seconds

                                                       Time (seconds)
Module                                       User      System        Wall        Calls
Total PK formation time             :      1.750u      0.050s      0.370w      2 calls
Libint2ERI::Libint2ERI              :      0.300u      0.033s      0.134w     12 calls
HF: Form core H                     :      0.117u      0.000s      0.021w      2 calls
HF: Form S/X                        :      0.000u      0.000s      0.003w      2 calls
HF: Guess                           :      0.400u      0.017s      0.062w      2 calls
SAD Guess                           :      0.367u      0.017s      0.060w      2 calls
HF: Form G                          :      0.267u      0.000s      0.033w     18 calls
JK: D                               :      0.000u      0.000s      0.000w     18 calls
JK: USO2AO                          :      0.000u      0.000s      0.000w     18 calls
JK: JK                              :      0.250u      0.000s      0.032w     18 calls
PK computes JK                      :      0.250u      0.000s      0.032w     18 calls
JK: AO2USO                          :      0.000u      0.000s      0.000w     18 calls
HF: Form F                          :      0.017u      0.000s      0.000w     18 calls
HF: Form D                          :      0.017u      0.000s      0.000w     18 calls
HF: DIIS                            :      1.833u      0.083s      0.395w     16 calls
HF: Form C                          :      0.100u      0.000s      0.015w     16 calls
trans_ints                          :      1.183u      0.083s      0.248w      1 calls
Trans (OV|OV)                       :      1.150u      0.083s      0.238w      1 calls
Sort chem -> phys                   :      0.000u      0.000s      0.001w      1 calls
Sort (OV|OV) -> <OO|VV>             :      0.000u      0.000s      0.001w      1 calls
Trans OEI                           :      0.000u      0.000s      0.000w      1 calls
Build Denominators                  :      0.000u      0.000s      0.001w      1 calls
T2(1)                               :      0.100u      0.000s      0.020w      1 calls
MP2 Energy                          :      0.083u      0.000s      0.019w      1 calls

--------------------------------------------------------------------------------------
Total PK formation time             :      1.750u      0.050s      0.370w      2 calls
| Libint2ERI::Libint2ERI            :      0.167u      0.017s      0.114w     10 calls
HF: Form core H                     :      0.117u      0.000s      0.021w      2 calls
HF: Form S/X                        :      0.000u      0.000s      0.003w      2 calls
HF: Guess                           :      0.400u      0.017s      0.062w      2 calls
| SAD Guess                         :      0.367u      0.017s      0.060w      2 calls
HF: Form G                          :      0.267u      0.000s      0.033w     18 calls
| JK: D                             :      0.000u      0.000s      0.000w     18 calls
| JK: USO2AO                        :      0.000u      0.000s      0.000w     18 calls
| JK: JK                            :      0.250u      0.000s      0.032w     18 calls
| | PK computes JK                  :      0.250u      0.000s      0.032w     18 calls
| JK: AO2USO                        :      0.000u      0.000s      0.000w     18 calls
HF: Form F                          :      0.017u      0.000s      0.000w     18 calls
HF: Form D                          :      0.017u      0.000s      0.000w     18 calls
HF: DIIS                            :      1.833u      0.083s      0.395w     16 calls
HF: Form C                          :      0.100u      0.000s      0.015w     16 calls
Libint2ERI::Libint2ERI              :      0.133u      0.017s      0.020w      2 calls
trans_ints                          :      1.183u      0.083s      0.248w      1 calls
| Trans (OV|OV)                     :      1.150u      0.083s      0.238w      1 calls
| Sort chem -> phys                 :      0.000u      0.000s      0.001w      1 calls
| | Sort (OV|OV) -> <OO|VV>         :      0.000u      0.000s      0.001w      1 calls
| Trans OEI                         :      0.000u      0.000s      0.000w      1 calls
| Build Denominators                :      0.000u      0.000s      0.001w      1 calls
T2(1)                               :      0.100u      0.000s      0.020w      1 calls
MP2 Energy                          :      0.083u      0.000s      0.019w      1 calls

**************************************************************************************

Host: asax029.asc.edu

Timers On : Tue Dec  3 15:49:30 2024
Timers Off: Tue Dec  3 15:49:49 2024

Wall Time:       19.35 seconds

                                                       Time (seconds)
Module                                       User      System        Wall        Calls
Total PK formation time             :      4.067u      0.083s      0.766w      2 calls
Libint2ERI::Libint2ERI              :      0.367u      0.033s      0.169w     12 calls
HF: Form core H                     :      0.117u      0.017s      0.023w      2 calls
HF: Form S/X                        :      0.050u      0.000s      0.006w      2 calls
HF: Guess                           :      0.550u      0.017s      0.085w      2 calls
SAD Guess                           :      0.533u      0.017s      0.083w      2 calls
HF: Form G                          :      1.733u      0.033s      0.263w     24 calls
JK: D                               :      0.000u      0.000s      0.001w     24 calls
JK: USO2AO                          :      0.000u      0.000s      0.000w     24 calls
JK: JK                              :      1.717u      0.033s      0.261w     24 calls
PK computes JK                      :      1.717u      0.033s      0.261w     24 calls
JK: AO2USO                          :      0.000u      0.000s      0.000w     24 calls
HF: Form F                          :      0.000u      0.000s      0.001w     24 calls
HF: Form D                          :      0.017u      0.000s      0.000w     24 calls
HF: DIIS                            :      2.083u      0.100s      0.429w     22 calls
HF: Form C                          :      0.217u      0.017s      0.036w     22 calls
trans_ints                          :      2.250u      0.267s      1.031w      1 calls
Trans (OV|OV)                       :      2.217u      0.267s      1.017w      1 calls
Sort chem -> phys                   :      0.000u      0.000s      0.003w      1 calls
Sort (OV|OV) -> <OO|VV>             :      0.000u      0.000s      0.003w      1 calls
Trans OEI                           :      0.000u      0.000s      0.000w      1 calls
Build Denominators                  :      0.017u      0.000s      0.002w      1 calls
T2(1)                               :      0.217u      0.033s      0.042w      1 calls
MP2 Energy                          :      0.150u      0.017s      0.033w      1 calls

--------------------------------------------------------------------------------------
Total PK formation time             :      4.067u      0.083s      0.766w      2 calls
| Libint2ERI::Libint2ERI            :      0.200u      0.033s      0.143w     10 calls
HF: Form core H                     :      0.117u      0.017s      0.023w      2 calls
HF: Form S/X                        :      0.050u      0.000s      0.006w      2 calls
HF: Guess                           :      0.550u      0.017s      0.085w      2 calls
| SAD Guess                         :      0.533u      0.017s      0.083w      2 calls
HF: Form G                          :      1.733u      0.033s      0.263w     24 calls
| JK: D                             :      0.000u      0.000s      0.001w     24 calls
| JK: USO2AO                        :      0.000u      0.000s      0.000w     24 calls
| JK: JK                            :      1.717u      0.033s      0.261w     24 calls
| | PK computes JK                  :      1.717u      0.033s      0.261w     24 calls
| JK: AO2USO                        :      0.000u      0.000s      0.000w     24 calls
HF: Form F                          :      0.000u      0.000s      0.001w     24 calls
HF: Form D                          :      0.017u      0.000s      0.000w     24 calls
HF: DIIS                            :      2.083u      0.100s      0.429w     22 calls
HF: Form C                          :      0.217u      0.017s      0.036w     22 calls
Libint2ERI::Libint2ERI              :      0.167u      0.000s      0.026w      2 calls
trans_ints                          :      2.250u      0.267s      1.031w      1 calls
| Trans (OV|OV)                     :      2.217u      0.267s      1.017w      1 calls
| Sort chem -> phys                 :      0.000u      0.000s      0.003w      1 calls
| | Sort (OV|OV) -> <OO|VV>         :      0.000u      0.000s      0.003w      1 calls
| Trans OEI                         :      0.000u      0.000s      0.000w      1 calls
| Build Denominators                :      0.017u      0.000s      0.002w      1 calls
T2(1)                               :      0.217u      0.033s      0.042w      1 calls
MP2 Energy                          :      0.150u      0.017s      0.033w      1 calls

**************************************************************************************

Host: asax029.asc.edu

Timers On : Tue Dec  3 15:49:49 2024
Timers Off: Tue Dec  3 16:03:52 2024

Wall Time:      842.45 seconds

                                                       Time (seconds)
Module                                       User      System        Wall        Calls
Total PK formation time             :    130.400u      1.267s     23.824w      2 calls
Libint2ERI::Libint2ERI              :      2.017u      0.083s      0.841w     12 calls
HF: Form core H                     :      0.250u      0.000s      0.044w      2 calls
HF: Form S/X                        :      0.167u      0.000s      0.027w      2 calls
HF: Guess                           :      0.867u      0.033s      0.134w      2 calls
SAD Guess                           :      0.850u      0.033s      0.131w      2 calls
HF: Form G                          :     37.717u      0.750s      8.129w     26 calls
JK: D                               :      0.000u      0.000s      0.003w     26 calls
JK: USO2AO                          :      0.000u      0.000s      0.000w     26 calls
JK: JK                              :     37.717u      0.750s      8.122w     26 calls
PK computes JK                      :     37.683u      0.750s      8.121w     26 calls
JK: AO2USO                          :      0.000u      0.000s      0.000w     26 calls
HF: Form F                          :      0.017u      0.000s      0.002w     26 calls
HF: Form D                          :      0.033u      0.000s      0.003w     26 calls
HF: DIIS                            :      2.950u      0.150s      0.587w     24 calls
HF: Form C                          :      1.867u      0.050s      0.299w     24 calls
trans_ints                          :    102.767u     11.517s     68.028w      1 calls
Trans (OV|OV)                       :    102.167u     11.150s     67.755w      1 calls
Sort chem -> phys                   :      0.050u      0.217s      0.162w      1 calls
Sort (OV|OV) -> <OO|VV>             :      0.050u      0.217s      0.162w      1 calls
Trans OEI                           :      0.017u      0.000s      0.002w      1 calls
Build Denominators                  :      0.500u      0.150s      0.099w      1 calls
T2(1)                               :      0.767u      1.817s      1.316w      1 calls
MP2 Energy                          :      0.083u      0.367s      0.293w      1 calls

--------------------------------------------------------------------------------------
Total PK formation time             :    130.400u      1.267s     23.824w      2 calls
| Libint2ERI::Libint2ERI            :      1.133u      0.050s      0.703w     10 calls
HF: Form core H                     :      0.250u      0.000s      0.044w      2 calls
HF: Form S/X                        :      0.167u      0.000s      0.027w      2 calls
HF: Guess                           :      0.867u      0.033s      0.134w      2 calls
| SAD Guess                         :      0.850u      0.033s      0.131w      2 calls
HF: Form G                          :     37.717u      0.750s      8.129w     26 calls
| JK: D                             :      0.000u      0.000s      0.003w     26 calls
| JK: USO2AO                        :      0.000u      0.000s      0.000w     26 calls
| JK: JK                            :     37.717u      0.750s      8.122w     26 calls
| | PK computes JK                  :     37.683u      0.750s      8.121w     26 calls
| JK: AO2USO                        :      0.000u      0.000s      0.000w     26 calls
HF: Form F                          :      0.017u      0.000s      0.002w     26 calls
HF: Form D                          :      0.033u      0.000s      0.003w     26 calls
HF: DIIS                            :      2.950u      0.150s      0.587w     24 calls
HF: Form C                          :      1.867u      0.050s      0.299w     24 calls
Libint2ERI::Libint2ERI              :      0.883u      0.033s      0.137w      2 calls
trans_ints                          :    102.767u     11.517s     68.028w      1 calls
| Trans (OV|OV)                     :    102.167u     11.150s     67.755w      1 calls
| Sort chem -> phys                 :      0.050u      0.217s      0.162w      1 calls
| | Sort (OV|OV) -> <OO|VV>         :      0.050u      0.217s      0.162w      1 calls
| Trans OEI                         :      0.017u      0.000s      0.002w      1 calls
| Build Denominators                :      0.500u      0.150s      0.099w      1 calls
T2(1)                               :      0.767u      1.817s      1.316w      1 calls
MP2 Energy                          :      0.083u      0.367s      0.293w      1 calls

**************************************************************************************

Host: asax029.asc.edu

Timers On : Tue Dec  3 16:03:53 2024
Timers Off: Tue Dec  3 16:03:57 2024

Wall Time:        4.30 seconds

                                                       Time (seconds)
Module                                       User      System        Wall        Calls
Total PK formation time             :      0.867u      0.083s      0.207w      2 calls
Libint2ERI::Libint2ERI              :      0.133u      0.067s      0.085w     12 calls
HF: Form core H                     :      0.133u      0.000s      0.028w      2 calls
HF: Form S/X                        :      0.017u      0.000s      0.002w      2 calls
HF: Guess                           :      0.500u      0.017s      0.079w      2 calls
SAD Guess                           :      0.500u      0.017s      0.077w      2 calls
HF: Form G                          :      0.300u      0.000s      0.049w     22 calls
JK: D                               :      0.017u      0.000s      0.000w     22 calls
JK: USO2AO                          :      0.000u      0.000s      0.000w     22 calls
JK: JK                              :      0.267u      0.000s      0.048w     22 calls
PK computes JK                      :      0.267u      0.000s      0.048w     22 calls
JK: AO2USO                          :      0.000u      0.000s      0.000w     22 calls
HF: Form F                          :      0.000u      0.000s      0.000w     22 calls
HF: Form D                          :      0.000u      0.000s      0.000w     22 calls
HF: DIIS                            :      1.833u      0.083s      0.360w     20 calls
HF: Form C                          :      0.050u      0.017s      0.014w     20 calls
trans_ints                          :      1.267u      0.100s      0.274w      1 calls
Trans (OV|OV)                       :      1.150u      0.100s      0.246w      1 calls
Sort chem -> phys                   :      0.000u      0.000s      0.000w      1 calls
Sort (OV|OV) -> <OO|VV>             :      0.000u      0.000s      0.000w      1 calls
Trans OEI                           :      0.000u      0.000s      0.000w      1 calls
Build Denominators                  :      0.017u      0.000s      0.000w      1 calls
T2(1)                               :      0.083u      0.000s      0.017w      1 calls
MP2 Energy                          :      0.067u      0.017s      0.015w      1 calls

--------------------------------------------------------------------------------------
Total PK formation time             :      0.867u      0.083s      0.207w      2 calls
| Libint2ERI::Libint2ERI            :      0.067u      0.067s      0.075w     10 calls
HF: Form core H                     :      0.133u      0.000s      0.028w      2 calls
HF: Form S/X                        :      0.017u      0.000s      0.002w      2 calls
HF: Guess                           :      0.500u      0.017s      0.079w      2 calls
| SAD Guess                         :      0.500u      0.017s      0.077w      2 calls
HF: Form G                          :      0.300u      0.000s      0.049w     22 calls
| JK: D                             :      0.017u      0.000s      0.000w     22 calls
| JK: USO2AO                        :      0.000u      0.000s      0.000w     22 calls
| JK: JK                            :      0.267u      0.000s      0.048w     22 calls
| | PK computes JK                  :      0.267u      0.000s      0.048w     22 calls
| JK: AO2USO                        :      0.000u      0.000s      0.000w     22 calls
HF: Form F                          :      0.000u      0.000s      0.000w     22 calls
HF: Form D                          :      0.000u      0.000s      0.000w     22 calls
HF: DIIS                            :      1.833u      0.083s      0.360w     20 calls
HF: Form C                          :      0.050u      0.017s      0.014w     20 calls
Libint2ERI::Libint2ERI              :      0.067u      0.000s      0.010w      2 calls
trans_ints                          :      1.267u      0.100s      0.274w      1 calls
| Trans (OV|OV)                     :      1.150u      0.100s      0.246w      1 calls
| Sort chem -> phys                 :      0.000u      0.000s      0.000w      1 calls
| | Sort (OV|OV) -> <OO|VV>         :      0.000u      0.000s      0.000w      1 calls
| Trans OEI                         :      0.000u      0.000s      0.000w      1 calls
| Build Denominators                :      0.017u      0.000s      0.000w      1 calls
T2(1)                               :      0.083u      0.000s      0.017w      1 calls
MP2 Energy                          :      0.067u      0.017s      0.015w      1 calls

**************************************************************************************

Host: asaxb001.asc.edu

Timers On : Tue Dec  3 16:06:44 2024
Timers Off: Tue Dec  3 16:07:01 2024

Wall Time:       16.62 seconds

                                                       Time (seconds)
Module                                       User      System        Wall        Calls
Total PK formation time             :      9.833u      0.117s      0.998w      2 calls
Libint2ERI::Libint2ERI              :      0.483u      0.067s      0.192w     20 calls
HF: Form core H                     :      0.267u      0.017s      0.023w      2 calls
HF: Form S/X                        :      0.383u      0.000s      0.032w      2 calls
HF: Guess                           :      0.867u      0.083s      0.073w      2 calls
SAD Guess                           :      0.800u      0.067s      0.066w      2 calls
HF: Form G                          :      0.500u      0.033s      0.040w     20 calls
JK: D                               :      0.000u      0.000s      0.000w     20 calls
JK: USO2AO                          :      0.000u      0.000s      0.000w     20 calls
JK: JK                              :      0.500u      0.033s      0.039w     20 calls
PK computes JK                      :      0.500u      0.033s      0.039w     20 calls
JK: AO2USO                          :      0.000u      0.000s      0.000w     20 calls
HF: Form F                          :      0.000u      0.000s      0.000w     20 calls
HF: Form D                          :      0.000u      0.000s      0.000w     20 calls
HF: DIIS                            :      3.500u      0.117s      0.350w     18 calls
HF: Form C                          :      0.200u      0.000s      0.015w     18 calls
trans_ints                          :      2.400u      0.150s      0.359w      1 calls
Trans (OV|OV)                       :      2.300u      0.133s      0.341w      1 calls
Sort chem -> phys                   :      0.000u      0.017s      0.005w      1 calls
Sort (OV|OV) -> <OO|VV>             :      0.000u      0.017s      0.005w      1 calls
Trans OEI                           :      0.000u      0.000s      0.000w      1 calls
Build Denominators                  :      0.050u      0.000s      0.004w      1 calls
T2(1)                               :      0.583u      0.067s      0.051w      1 calls
MP2 Energy                          :      0.717u      0.017s      0.063w      1 calls

--------------------------------------------------------------------------------------
Total PK formation time             :      9.833u      0.117s      0.998w      2 calls
| Libint2ERI::Libint2ERI            :      0.267u      0.050s      0.174w     18 calls
HF: Form core H                     :      0.267u      0.017s      0.023w      2 calls
HF: Form S/X                        :      0.383u      0.000s      0.032w      2 calls
HF: Guess                           :      0.867u      0.083s      0.073w      2 calls
| SAD Guess                         :      0.800u      0.067s      0.066w      2 calls
HF: Form G                          :      0.500u      0.033s      0.040w     20 calls
| JK: D                             :      0.000u      0.000s      0.000w     20 calls
| JK: USO2AO                        :      0.000u      0.000s      0.000w     20 calls
| JK: JK                            :      0.500u      0.033s      0.039w     20 calls
| | PK computes JK                  :      0.500u      0.033s      0.039w     20 calls
| JK: AO2USO                        :      0.000u      0.000s      0.000w     20 calls
HF: Form F                          :      0.000u      0.000s      0.000w     20 calls
HF: Form D                          :      0.000u      0.000s      0.000w     20 calls
HF: DIIS                            :      3.500u      0.117s      0.350w     18 calls
HF: Form C                          :      0.200u      0.000s      0.015w     18 calls
Libint2ERI::Libint2ERI              :      0.217u      0.017s      0.018w      2 calls
trans_ints                          :      2.400u      0.150s      0.359w      1 calls
| Trans (OV|OV)                     :      2.300u      0.133s      0.341w      1 calls
| Sort chem -> phys                 :      0.000u      0.017s      0.005w      1 calls
| | Sort (OV|OV) -> <OO|VV>         :      0.000u      0.017s      0.005w      1 calls
| Trans OEI                         :      0.000u      0.000s      0.000w      1 calls
| Build Denominators                :      0.050u      0.000s      0.004w      1 calls
T2(1)                               :      0.583u      0.067s      0.051w      1 calls
MP2 Energy                          :      0.717u      0.017s      0.063w      1 calls

**************************************************************************************

Host: asaxb001.asc.edu

Timers On : Tue Dec  3 16:07:01 2024
Timers Off: Tue Dec  3 16:07:04 2024

Wall Time:        2.11 seconds

                                                       Time (seconds)
Module                                       User      System        Wall        Calls
Total PK formation time             :      0.617u      0.050s      0.050w      2 calls
Libint2ERI::Libint2ERI              :      0.467u      0.050s      0.039w     20 calls
HF: Form core H                     :      0.183u      0.033s      0.019w      2 calls
HF: Form S/X                        :      0.000u      0.000s      0.000w      2 calls
HF: Guess                           :      0.550u      0.050s      0.045w      2 calls
SAD Guess                           :      0.517u      0.050s      0.042w      2 calls
HF: Form G                          :      0.017u      0.000s      0.001w     18 calls
JK: D                               :      0.000u      0.000s      0.000w     18 calls
JK: USO2AO                          :      0.000u      0.000s      0.000w     18 calls
JK: JK                              :      0.017u      0.000s      0.001w     18 calls
PK computes JK                      :      0.017u      0.000s      0.001w     18 calls
JK: AO2USO                          :      0.000u      0.000s      0.000w     18 calls
HF: Form F                          :      0.000u      0.000s      0.000w     18 calls
HF: Form D                          :      0.000u      0.000s      0.000w     18 calls
HF: DIIS                            :      3.283u      0.083s      0.335w     16 calls
HF: Form C                          :      0.067u      0.017s      0.005w     16 calls
trans_ints                          :      0.850u      0.033s      0.076w      1 calls
Trans (OV|OV)                       :      0.767u      0.033s      0.068w      1 calls
Sort chem -> phys                   :      0.000u      0.000s      0.000w      1 calls
Sort (OV|OV) -> <OO|VV>             :      0.000u      0.000s      0.000w      1 calls
Trans OEI                           :      0.000u      0.000s      0.000w      1 calls
Build Denominators                  :      0.000u      0.000s      0.000w      1 calls
T2(1)                               :      0.167u      0.000s      0.015w      1 calls
MP2 Energy                          :      0.167u      0.000s      0.014w      1 calls

--------------------------------------------------------------------------------------
Total PK formation time             :      0.617u      0.050s      0.050w      2 calls
| Libint2ERI::Libint2ERI            :      0.450u      0.050s      0.037w     18 calls
HF: Form core H                     :      0.183u      0.033s      0.019w      2 calls
HF: Form S/X                        :      0.000u      0.000s      0.000w      2 calls
HF: Guess                           :      0.550u      0.050s      0.045w      2 calls
| SAD Guess                         :      0.517u      0.050s      0.042w      2 calls
HF: Form G                          :      0.017u      0.000s      0.001w     18 calls
| JK: D                             :      0.000u      0.000s      0.000w     18 calls
| JK: USO2AO                        :      0.000u      0.000s      0.000w     18 calls
| JK: JK                            :      0.017u      0.000s      0.001w     18 calls
| | PK computes JK                  :      0.017u      0.000s      0.001w     18 calls
| JK: AO2USO                        :      0.000u      0.000s      0.000w     18 calls
HF: Form F                          :      0.000u      0.000s      0.000w     18 calls
HF: Form D                          :      0.000u      0.000s      0.000w     18 calls
HF: DIIS                            :      3.283u      0.083s      0.335w     16 calls
HF: Form C                          :      0.067u      0.017s      0.005w     16 calls
Libint2ERI::Libint2ERI              :      0.017u      0.000s      0.002w      2 calls
trans_ints                          :      0.850u      0.033s      0.076w      1 calls
| Trans (OV|OV)                     :      0.767u      0.033s      0.068w      1 calls
| Sort chem -> phys                 :      0.000u      0.000s      0.000w      1 calls
| | Sort (OV|OV) -> <OO|VV>         :      0.000u      0.000s      0.000w      1 calls
[...]
HF: DIIS                            :      0.817u      0.717s      0.937w     22 calls
HF: Form C                          :      0.333u      0.250s      0.319w     22 calls
Libint2ERI::Libint2ERI              :      0.333u      0.267s      0.353w      3 calls
trans_ints                          :     17.667u      4.633s     13.495w      1 calls
| Trans (OV|OV)                     :     17.617u      4.533s     13.405w      1 calls
| Sort chem -> phys                 :      0.017u      0.033s      0.026w      1 calls
| | Sort (OV|OV) -> <OO|VV>         :      0.017u      0.033s      0.026w      1 calls
| Trans OEI                         :      0.000u      0.033s      0.019w      1 calls
| Build Denominators                :      0.033u      0.017s      0.029w      1 calls
T2(1)                               :      0.133u      0.367s      0.293w      1 calls
MP2 Energy                          :      0.033u      0.083s      0.078w      1 calls

**************************************************************************************

Host: asax026.asc.edu

Timers On : Wed Dec  4 17:26:16 2024
Timers Off: Wed Dec  4 17:27:01 2024

Wall Time:       44.93 seconds

                                                       Time (seconds)
Module                                       User      System        Wall        Calls
Total PK formation time             :      4.450u      0.100s      3.095w      2 calls
Libint2ERI::Libint2ERI              :      0.217u      0.150s      0.589w      7 calls
HF: Form core H                     :      0.017u      0.067s      0.291w      2 calls
HF: Form S/X                        :      0.033u      0.017s      0.041w      2 calls
HF: Guess                           :      0.383u      0.500s      0.538w      2 calls
SAD Guess                           :      0.383u      0.500s      0.536w      2 calls
HF: Form G                          :      1.217u      1.400s      1.577w     22 calls
JK: D                               :      0.000u      0.000s      0.004w     22 calls
JK: USO2AO                          :      0.000u      0.000s      0.000w     22 calls
JK: JK                              :      1.067u      1.017s      1.260w     22 calls
PK computes JK                      :      1.067u      1.017s      1.260w     22 calls
JK: AO2USO                          :      0.000u      0.000s      0.000w     22 calls
HF: Form F                          :      0.017u      0.050s      0.033w     22 calls
HF: Form D                          :      0.000u      0.000s      0.003w     22 calls
HF: DIIS                            :      0.683u      0.633s      1.468w     20 calls
HF: Form C                          :      0.150u      0.117s      0.142w     20 calls
trans_ints                          :      3.867u      1.767s      3.401w      1 calls
Trans (OV|OV)                       :      3.850u      1.750s      3.388w      1 calls
Sort chem -> phys                   :      0.000u      0.000s      0.002w      1 calls
Sort (OV|OV) -> <OO|VV>             :      0.000u      0.000s      0.002w      1 calls
Trans OEI                           :      0.000u      0.000s      0.000w      1 calls
Build Denominators                  :      0.000u      0.000s      0.001w      1 calls
T2(1)                               :      0.017u      0.033s      0.037w      1 calls
MP2 Energy                          :      0.000u      0.033s      0.018w      1 calls

--------------------------------------------------------------------------------------
Total PK formation time             :      4.450u      0.100s      3.095w      2 calls
| Libint2ERI::Libint2ERI            :      0.100u      0.033s      0.441w      4 calls
HF: Form core H                     :      0.017u      0.067s      0.291w      2 calls
HF: Form S/X                        :      0.033u      0.017s      0.041w      2 calls
HF: Guess                           :      0.383u      0.500s      0.538w      2 calls
| SAD Guess                         :      0.383u      0.500s      0.536w      2 calls
HF: Form G                          :      1.217u      1.400s      1.577w     22 calls
| JK: D                             :      0.000u      0.000s      0.004w     22 calls
| JK: USO2AO                        :      0.000u      0.000s      0.000w     22 calls
| JK: JK                            :      1.067u      1.017s      1.260w     22 calls
| | PK computes JK                  :      1.067u      1.017s      1.260w     22 calls
| JK: AO2USO                        :      0.000u      0.000s      0.000w     22 calls
HF: Form F                          :      0.017u      0.050s      0.033w     22 calls
HF: Form D                          :      0.000u      0.000s      0.003w     22 calls
HF: DIIS                            :      0.683u      0.633s      1.468w     20 calls
HF: Form C                          :      0.150u      0.117s      0.142w     20 calls
Libint2ERI::Libint2ERI              :      0.117u      0.117s      0.149w      3 calls
trans_ints                          :      3.867u      1.767s      3.401w      1 calls
| Trans (OV|OV)                     :      3.850u      1.750s      3.388w      1 calls
| Sort chem -> phys                 :      0.000u      0.000s      0.002w      1 calls
| | Sort (OV|OV) -> <OO|VV>         :      0.000u      0.000s      0.002w      1 calls
| Trans OEI                         :      0.000u      0.000s      0.000w      1 calls
| Build Denominators                :      0.000u      0.000s      0.001w      1 calls
T2(1)                               :      0.017u      0.033s      0.037w      1 calls
MP2 Energy                          :      0.000u      0.033s      0.018w      1 calls

**************************************************************************************

Host: asax027.asc.edu

Timers On : Wed Dec  4 18:37:53 2024
Timers Off: Wed Dec  4 18:38:34 2024

Wall Time:       40.51 seconds

                                                       Time (seconds)
Module                                       User      System        Wall        Calls
Total PK formation time             :      4.800u      0.117s      3.487w      2 calls
Libint2ERI::Libint2ERI              :      0.617u      0.033s      0.729w      7 calls
HF: Form core H                     :      0.000u      0.000s      0.150w      2 calls
HF: Form S/X                        :      0.533u      0.017s      0.134w      2 calls
HF: Guess                           :      0.733u      0.033s      0.116w      2 calls
SAD Guess                           :      0.733u      0.033s      0.115w      2 calls
HF: Form G                          :      1.733u      0.033s      0.267w     18 calls
JK: D                               :      0.000u      0.000s      0.000w     18 calls
JK: USO2AO                          :      0.000u      0.000s      0.000w     18 calls
JK: JK                              :      1.700u      0.033s      0.266w     18 calls
PK computes JK                      :      1.700u      0.033s      0.266w     18 calls
JK: AO2USO                          :      0.000u      0.000s      0.000w     18 calls
HF: Form F                          :      0.000u      0.000s      0.000w     18 calls
HF: Form D                          :      0.000u      0.000s      0.000w     18 calls
HF: DIIS                            :      1.817u      0.117s      1.745w     16 calls
HF: Form C                          :      0.183u      0.000s      0.028w     16 calls
trans_ints                          :      6.333u      0.583s      1.438w      1 calls
Trans (OV|OV)                       :      6.267u      0.567s      1.424w      1 calls
Sort chem -> phys                   :      0.017u      0.017s      0.003w      1 calls
Sort (OV|OV) -> <OO|VV>             :      0.017u      0.017s      0.003w      1 calls
Trans OEI                           :      0.000u      0.000s      0.000w      1 calls
Build Denominators                  :      0.017u      0.000s      0.002w      1 calls
T2(1)                               :      0.183u      0.017s      0.036w      1 calls
MP2 Energy                          :      0.117u      0.000s      0.021w      1 calls

--------------------------------------------------------------------------------------
Total PK formation time             :      4.800u      0.117s      3.487w      2 calls
| Libint2ERI::Libint2ERI            :      0.183u      0.033s      0.645w      4 calls
HF: Form core H                     :      0.000u      0.000s      0.150w      2 calls
HF: Form S/X                        :      0.533u      0.017s      0.134w      2 calls
HF: Guess                           :      0.733u      0.033s      0.116w      2 calls
| SAD Guess                         :      0.733u      0.033s      0.115w      2 calls
HF: Form G                          :      1.733u      0.033s      0.267w     18 calls
| JK: D                             :      0.000u      0.000s      0.000w     18 calls
| JK: USO2AO                        :      0.000u      0.000s      0.000w     18 calls
| JK: JK                            :      1.700u      0.033s      0.266w     18 calls
| | PK computes JK                  :      1.700u      0.033s      0.266w     18 calls
| JK: AO2USO                        :      0.000u      0.000s      0.000w     18 calls
HF: Form F                          :      0.000u      0.000s      0.000w     18 calls
HF: Form D                          :      0.000u      0.000s      0.000w     18 calls
HF: DIIS                            :      1.817u      0.117s      1.745w     16 calls
HF: Form C                          :      0.183u      0.000s      0.028w     16 calls
Libint2ERI::Libint2ERI              :      0.433u      0.000s      0.084w      3 calls
trans_ints                          :      6.333u      0.583s      1.438w      1 calls
| Trans (OV|OV)                     :      6.267u      0.567s      1.424w      1 calls
| Sort chem -> phys                 :      0.017u      0.017s      0.003w      1 calls
| | Sort (OV|OV) -> <OO|VV>         :      0.017u      0.017s      0.003w      1 calls
| Trans OEI                         :      0.000u      0.000s      0.000w      1 calls
| Build Denominators                :      0.017u      0.000s      0.002w      1 calls
T2(1)                               :      0.183u      0.017s      0.036w      1 calls
MP2 Energy                          :      0.117u      0.000s      0.021w      1 calls

**************************************************************************************

Host: asax027.asc.edu

Timers On : Wed Dec  4 18:38:34 2024
Timers Off: Wed Dec  4 18:40:55 2024

Wall Time:      140.71 seconds

                                                       Time (seconds)
Module                                       User      System        Wall        Calls
Total PK formation time             :     18.100u      0.400s     11.131w      2 calls
Libint2ERI::Libint2ERI              :      0.867u      0.033s      0.294w      7 calls
HF: Form core H                     :      0.033u      0.000s      0.028w      2 calls
HF: Form S/X                        :      0.033u      0.000s      0.008w      2 calls
HF: Guess                           :      0.950u      0.050s      0.153w      2 calls
SAD Guess                           :      0.917u      0.050s      0.152w      2 calls
HF: Form G                          :     13.067u      0.217s      1.995w     24 calls
JK: D                               :      0.000u      0.000s      0.001w     24 calls
JK: USO2AO                          :      0.000u      0.000s      0.000w     24 calls
JK: JK                              :     13.033u      0.217s      1.992w     24 calls
PK computes JK                      :     13.033u      0.217s      1.991w     24 calls
JK: AO2USO                          :      0.000u      0.000s      0.000w     24 calls
HF: Form F                          :      0.000u      0.000s      0.001w     24 calls
HF: Form D                          :      0.000u      0.000s      0.001w     24 calls
HF: DIIS                            :      2.100u      0.117s      0.374w     22 calls
HF: Form C                          :      0.550u      0.000s      0.086w     22 calls
trans_ints                          :     22.483u      2.400s      7.545w      1 calls
Trans (OV|OV)                       :     22.350u      2.367s      7.517w      1 calls
Sort chem -> phys                   :      0.050u      0.017s      0.012w      1 calls
Sort (OV|OV) -> <OO|VV>             :      0.050u      0.017s      0.012w      1 calls
Trans OEI                           :      0.000u      0.000s      0.000w      1 calls
Build Denominators                  :      0.050u      0.000s      0.009w      1 calls
T2(1)                               :      0.467u      0.100s      0.090w      1 calls
MP2 Energy                          :      0.250u      0.033s      0.049w      1 calls

--------------------------------------------------------------------------------------
Total PK formation time             :     18.100u      0.400s     11.131w      2 calls
| Libint2ERI::Libint2ERI            :      0.250u      0.033s      0.172w      4 calls
HF: Form core H                     :      0.033u      0.000s      0.028w      2 calls
HF: Form S/X                        :      0.033u      0.000s      0.008w      2 calls
HF: Guess                           :      0.950u      0.050s      0.153w      2 calls
| SAD Guess                         :      0.917u      0.050s      0.152w      2 calls
HF: Form G                          :     13.067u      0.217s      1.995w     24 calls
| JK: D                             :      0.000u      0.000s      0.001w     24 calls
| JK: USO2AO                        :      0.000u      0.000s      0.000w     24 calls
| JK: JK                            :     13.033u      0.217s      1.992w     24 calls
| | PK computes JK                  :     13.033u      0.217s      1.991w     24 calls
| JK: AO2USO                        :      0.000u      0.000s      0.000w     24 calls
HF: Form F                          :      0.000u      0.000s      0.001w     24 calls
HF: Form D                          :      0.000u      0.000s      0.001w     24 calls
HF: DIIS                            :      2.100u      0.117s      0.374w     22 calls
HF: Form C                          :      0.550u      0.000s      0.086w     22 calls
Libint2ERI::Libint2ERI              :      0.617u      0.000s      0.122w      3 calls
trans_ints                          :     22.483u      2.400s      7.545w      1 calls
| Trans (OV|OV)                     :     22.350u      2.367s      7.517w      1 calls
| Sort chem -> phys                 :      0.050u      0.017s      0.012w      1 calls
| | Sort (OV|OV) -> <OO|VV>         :      0.050u      0.017s      0.012w      1 calls
| Trans OEI                         :      0.000u      0.000s      0.000w      1 calls
| Build Denominators                :      0.050u      0.000s      0.009w      1 calls
T2(1)                               :      0.467u      0.100s      0.090w      1 calls
MP2 Energy                          :      0.250u      0.033s      0.049w      1 calls

**************************************************************************************

Host: asax027.asc.edu

Timers On : Wed Dec  4 19:49:22 2024
Timers Off: Wed Dec  4 19:49:57 2024

Wall Time:       35.42 seconds

                                                       Time (seconds)
Module                                       User      System        Wall        Calls
Total PK formation time             :      4.500u      0.117s      3.051w      2 calls
Libint2ERI::Libint2ERI              :      0.333u      0.033s      0.409w      7 calls
HF: Form core H                     :      0.000u      0.000s      0.241w      2 calls
HF: Form S/X                        :      0.050u      0.017s      0.046w      2 calls
HF: Guess                           :      0.900u      0.050s      0.139w      2 calls
SAD Guess                           :      0.867u      0.050s      0.137w      2 calls
HF: Form G                          :      2.567u      0.017s      0.392w     22 calls
JK: D                               :      0.000u      0.000s      0.000w     22 calls
JK: USO2AO                          :      0.000u      0.000s      0.000w     22 calls
JK: JK                              :      2.550u      0.017s      0.390w     22 calls
PK computes JK                      :      2.550u      0.017s      0.390w     22 calls
JK: AO2USO                          :      0.000u      0.000s      0.000w     22 calls
HF: Form F                          :      0.000u      0.000s      0.001w     22 calls
HF: Form D                          :      0.017u      0.000s      0.000w     22 calls
HF: DIIS                            :      1.950u      0.150s      1.342w     20 calls
HF: Form C                          :      0.283u      0.000s      0.037w     20 calls
trans_ints                          :      6.850u      0.650s      1.896w      1 calls
Trans (OV|OV)                       :      6.783u      0.633s      1.884w      1 calls
Sort chem -> phys                   :      0.000u      0.017s      0.002w      1 calls
Sort (OV|OV) -> <OO|VV>             :      0.000u      0.017s      0.002w      1 calls
Trans OEI                           :      0.000u      0.000s      0.000w      1 calls
Build Denominators                  :      0.017u      0.000s      0.001w      1 calls
T2(1)                               :      0.133u      0.000s      0.027w      1 calls
MP2 Energy                          :      0.100u      0.000s      0.019w      1 calls

--------------------------------------------------------------------------------------
Total PK formation time             :      4.500u      0.117s      3.051w      2 calls
| Libint2ERI::Libint2ERI            :      0.117u      0.033s      0.360w      4 calls
HF: Form core H                     :      0.000u      0.000s      0.241w      2 calls
HF: Form S/X                        :      0.050u      0.017s      0.046w      2 calls
HF: Guess                           :      0.900u      0.050s      0.139w      2 calls
| SAD Guess                         :      0.867u      0.050s      0.137w      2 calls
HF: Form G                          :      2.567u      0.017s      0.392w     22 calls
| JK: D                             :      0.000u      0.000s      0.000w     22 calls
| JK: USO2AO                        :      0.000u      0.000s      0.000w     22 calls
| JK: JK                            :      2.550u      0.017s      0.390w     22 calls
| | PK computes JK                  :      2.550u      0.017s      0.390w     22 calls
| JK: AO2USO                        :      0.000u      0.000s      0.000w     22 calls
HF: Form F                          :      0.000u      0.000s      0.001w     22 calls
HF: Form D                          :      0.017u      0.000s      0.000w     22 calls
HF: DIIS                            :      1.950u      0.150s      1.342w     20 calls
HF: Form C                          :      0.283u      0.000s      0.037w     20 calls
Libint2ERI::Libint2ERI              :      0.217u      0.000s      0.050w      3 calls
trans_ints                          :      6.850u      0.650s      1.896w      1 calls
| Trans (OV|OV)                     :      6.783u      0.633s      1.884w      1 calls
| Sort chem -> phys                 :      0.000u      0.017s      0.002w      1 calls
| | Sort (OV|OV) -> <OO|VV>         :      0.000u      0.017s      0.002w      1 calls
| Trans OEI                         :      0.000u      0.000s      0.000w      1 calls
| Build Denominators                :      0.017u      0.000s      0.001w      1 calls
T2(1)                               :      0.133u      0.000s      0.027w      1 calls
MP2 Energy                          :      0.100u      0.000s      0.019w      1 calls

**************************************************************************************
