
Host: fedora

Timers On : Tue Oct  8 10:27:25 2024
Timers Off: Tue Oct  8 10:27:25 2024

Wall Time:        0.90 seconds

                                                       Time (seconds)
Module                                       User      System        Wall        Calls

--------------------------------------------------------------------------------------

**************************************************************************************

Host: fedora

Timers On : Tue Oct  8 11:42:39 2024
Timers Off: Tue Oct  8 11:42:40 2024

Wall Time:        0.50 seconds

                                                       Time (seconds)
Module                                       User      System        Wall        Calls

--------------------------------------------------------------------------------------

**************************************************************************************

Host: fedora

Timers On : Tue Oct  8 11:42:54 2024
Timers Off: Tue Oct  8 11:42:55 2024

Wall Time:        0.53 seconds

                                                       Time (seconds)
Module                                       User      System        Wall        Calls

--------------------------------------------------------------------------------------

**************************************************************************************

Host: fedora

Timers On : Tue Oct  8 11:43:01 2024
Timers Off: Tue Oct  8 11:43:01 2024

Wall Time:        0.49 seconds

                                                       Time (seconds)
Module                                       User      System        Wall        Calls

--------------------------------------------------------------------------------------

**************************************************************************************

Host: fedora

Timers On : Tue Oct  8 11:43:28 2024
Timers Off: Tue Oct  8 11:43:28 2024

Wall Time:        0.55 seconds

                                                       Time (seconds)
Module                                       User      System        Wall        Calls

--------------------------------------------------------------------------------------

**************************************************************************************

Host: fedora

Timers On : Tue Oct  8 11:43:31 2024
Timers Off: Tue Oct  8 11:43:32 2024

Wall Time:        0.51 seconds

                                                       Time (seconds)
Module                                       User      System        Wall        Calls

--------------------------------------------------------------------------------------

**************************************************************************************

Host: fedora

Timers On : Tue Oct  8 11:48:38 2024
Timers Off: Tue Oct  8 11:48:39 2024

Wall Time:        0.62 seconds

                                                       Time (seconds)
Module                                       User      System        Wall        Calls

--------------------------------------------------------------------------------------

**************************************************************************************

Host: fedora

Timers On : Tue Oct  8 11:48:45 2024
Timers Off: Tue Oct  8 11:48:46 2024

Wall Time:        0.50 seconds

                                                       Time (seconds)
Module                                       User      System        Wall        Calls

--------------------------------------------------------------------------------------

**************************************************************************************

Host: fedora

Timers On : Tue Oct  8 11:53:12 2024
Timers Off: Tue Oct  8 11:53:13 2024

Wall Time:        0.56 seconds

                                                       Time (seconds)
Module                                       User      System        Wall        Calls

--------------------------------------------------------------------------------------

**************************************************************************************

Host: fedora

Timers On : Tue Oct  8 11:53:19 2024
Timers Off: Tue Oct  8 11:53:20 2024

Wall Time:        0.49 seconds

                                                       Time (seconds)
Module                                       User      System        Wall        Calls

--------------------------------------------------------------------------------------

**************************************************************************************

Host: fedora

Timers On : Tue Oct  8 11:59:51 2024
Timers Off: Tue Oct  8 11:59:52 2024

Wall Time:        0.52 seconds

                                                       Time (seconds)
Module                                       User      System        Wall        Calls

--------------------------------------------------------------------------------------

**************************************************************************************

Host: fedora

Timers On : Tue Oct  8 11:59:54 2024
Timers Off: Tue Oct  8 11:59:55 2024

Wall Time:        0.49 seconds

                                                       Time (seconds)
Module                                       User      System        Wall        Calls

--------------------------------------------------------------------------------------

**************************************************************************************

Host: fedora

Timers On : Wed Oct  9 07:44:54 2024
Timers Off: Wed Oct  9 07:44:56 2024

Wall Time:        1.23 seconds

                                                       Time (seconds)
Module                                       User      System        Wall        Calls

--------------------------------------------------------------------------------------

**************************************************************************************

Host: fedora

Timers On : Wed Oct  9 07:45:03 2024
Timers Off: Wed Oct  9 07:45:03 2024

Wall Time:        0.53 seconds

                                                       Time (seconds)
Module                                       User      System        Wall        Calls

--------------------------------------------------------------------------------------

**************************************************************************************

Host: fedora

Timers On : Wed Oct  9 07:52:03 2024
Timers Off: Wed Oct  9 07:52:04 2024

Wall Time:        0.77 seconds

                                                       Time (seconds)
Module                                       User      System        Wall        Calls

--------------------------------------------------------------------------------------

**************************************************************************************

Host: fedora

Timers On : Wed Oct  9 07:52:08 2024
Timers Off: Wed Oct  9 07:52:08 2024

Wall Time:        0.48 seconds

                                                       Time (seconds)
Module                                       User      System        Wall        Calls

--------------------------------------------------------------------------------------

**************************************************************************************

Host: fedora

Timers On : Wed Oct  9 07:52:27 2024
Timers Off: Wed Oct  9 07:52:28 2024

Wall Time:        0.54 seconds

                                                       Time (seconds)
Module                                       User      System        Wall        Calls

--------------------------------------------------------------------------------------

**************************************************************************************

Host: fedora

Timers On : Wed Oct  9 07:52:32 2024
Timers Off: Wed Oct  9 07:52:32 2024

Wall Time:        0.52 seconds

                                                       Time (seconds)
Module                                       User      System        Wall        Calls

--------------------------------------------------------------------------------------

**************************************************************************************

Host: fedora

Timers On : Wed Oct  9 07:55:13 2024
Timers Off: Wed Oct  9 07:55:13 2024

Wall Time:        0.55 seconds

                                                       Time (seconds)
Module                                       User      System        Wall        Calls

--------------------------------------------------------------------------------------

**************************************************************************************

Host: fedora

Timers On : Wed Oct  9 07:55:18 2024
Timers Off: Wed Oct  9 07:55:18 2024

Wall Time:        0.49 seconds

                                                       Time (seconds)
Module                                       User      System        Wall        Calls

--------------------------------------------------------------------------------------

**************************************************************************************

Host: fedora

Timers On : Wed Oct  9 07:57:10 2024
Timers Off: Wed Oct  9 07:57:11 2024

Wall Time:        0.58 seconds

                                                       Time (seconds)
Module                                       User      System        Wall        Calls

--------------------------------------------------------------------------------------

**************************************************************************************

Host: fedora

Timers On : Wed Oct  9 07:57:14 2024
Timers Off: Wed Oct  9 07:57:15 2024

Wall Time:        0.49 seconds

                                                       Time (seconds)
Module                                       User      System        Wall        Calls

--------------------------------------------------------------------------------------

**************************************************************************************

Host: fedora

Timers On : Wed Oct  9 07:58:01 2024
Timers Off: Wed Oct  9 07:58:02 2024

Wall Time:        0.51 seconds

                                                       Time (seconds)
Module                                       User      System        Wall        Calls

--------------------------------------------------------------------------------------

**************************************************************************************

Host: fedora

Timers On : Wed Oct  9 07:58:05 2024
Timers Off: Wed Oct  9 07:58:05 2024

Wall Time:        0.49 seconds

                                                       Time (seconds)
Module                                       User      System        Wall        Calls

--------------------------------------------------------------------------------------

**************************************************************************************

Host: fedora

Timers On : Wed Oct  9 07:58:27 2024
Timers Off: Wed Oct  9 07:58:27 2024

Wall Time:        0.55 seconds

                                                       Time (seconds)
Module                                       User      System        Wall        Calls

--------------------------------------------------------------------------------------

**************************************************************************************

Host: fedora

Timers On : Wed Oct  9 07:58:29 2024
Timers Off: Wed Oct  9 07:58:30 2024

Wall Time:        0.50 seconds

                                                       Time (seconds)
Module                                       User      System        Wall        Calls

--------------------------------------------------------------------------------------

**************************************************************************************

Host: fedora

Timers On : Wed Oct  9 07:58:40 2024
Timers Off: Wed Oct  9 07:58:40 2024

Wall Time:        0.50 seconds

                                                       Time (seconds)
Module                                       User      System        Wall        Calls

--------------------------------------------------------------------------------------

**************************************************************************************

Host: fedora

Timers On : Wed Oct  9 08:03:28 2024
Timers Off: Wed Oct  9 08:03:28 2024

Wall Time:        0.61 seconds

                                                       Time (seconds)
Module                                       User      System        Wall        Calls

--------------------------------------------------------------------------------------

**************************************************************************************

Host: fedora

Timers On : Wed Oct  9 08:03:31 2024
Timers Off: Wed Oct  9 08:03:31 2024

Wall Time:        0.51 seconds

                                                       Time (seconds)
Module                                       User      System        Wall        Calls

--------------------------------------------------------------------------------------

**************************************************************************************

Host: fedora

Timers On : Wed Oct  9 08:13:14 2024
Timers Off: Wed Oct  9 08:13:15 2024

Wall Time:        1.05 seconds

                                                       Time (seconds)
Module                                       User      System        Wall        Calls

--------------------------------------------------------------------------------------

**************************************************************************************

Host: fedora

Timers On : Wed Oct  9 08:13:22 2024
Timers Off: Wed Oct  9 08:13:22 2024

Wall Time:        0.52 seconds

                                                       Time (seconds)
Module                                       User      System        Wall        Calls

--------------------------------------------------------------------------------------

**************************************************************************************

Host: fedora

Timers On : Wed Oct  9 08:13:56 2024
Timers Off: Wed Oct  9 08:13:57 2024

Wall Time:        0.56 seconds

                                                       Time (seconds)
Module                                       User      System        Wall        Calls

--------------------------------------------------------------------------------------

**************************************************************************************

Host: fedora

Timers On : Wed Oct  9 08:14:01 2024
Timers Off: Wed Oct  9 08:14:02 2024

Wall Time:        0.49 seconds

                                                       Time (seconds)
Module                                       User      System        Wall        Calls

--------------------------------------------------------------------------------------

**************************************************************************************

Host: fedora

Timers On : Wed Oct  9 08:36:02 2024
Timers Off: Wed Oct  9 08:36:03 2024

Wall Time:        0.75 seconds

                                                       Time (seconds)
Module                                       User      System        Wall        Calls

--------------------------------------------------------------------------------------

**************************************************************************************

Host: fedora

Timers On : Wed Oct  9 08:36:06 2024
Timers Off: Wed Oct  9 08:36:06 2024

Wall Time:        0.50 seconds

                                                       Time (seconds)
Module                                       User      System        Wall        Calls

--------------------------------------------------------------------------------------

**************************************************************************************

Host: fedora

Timers On : Wed Oct  9 08:36:18 2024
Timers Off: Wed Oct  9 08:36:18 2024

Wall Time:        0.53 seconds

                                                       Time (seconds)
Module                                       User      System        Wall        Calls

--------------------------------------------------------------------------------------

**************************************************************************************

Host: fedora

Timers On : Wed Oct  9 08:36:20 2024
Timers Off: Wed Oct  9 08:36:21 2024

Wall Time:        0.49 seconds

                                                       Time (seconds)
Module                                       User      System        Wall        Calls

--------------------------------------------------------------------------------------

**************************************************************************************

Host: fedora

Timers On : Wed Oct  9 08:36:28 2024
Timers Off: Wed Oct  9 08:36:28 2024

Wall Time:        0.52 seconds

                                                       Time (seconds)
Module                                       User      System        Wall        Calls

--------------------------------------------------------------------------------------

**************************************************************************************

Host: fedora

Timers On : Wed Oct  9 08:36:31 2024
Timers Off: Wed Oct  9 08:36:32 2024

Wall Time:        0.49 seconds

                                                       Time (seconds)
Module                                       User      System        Wall        Calls

--------------------------------------------------------------------------------------

**************************************************************************************

Host: fedora

Timers On : Wed Oct  9 08:37:42 2024
Timers Off: Wed Oct  9 08:37:43 2024

Wall Time:        0.55 seconds

                                                       Time (seconds)
Module                                       User      System        Wall        Calls

--------------------------------------------------------------------------------------

**************************************************************************************

Host: fedora

Timers On : Wed Oct  9 08:37:46 2024
Timers Off: Wed Oct  9 08:37:47 2024

Wall Time:        0.50 seconds

                                                       Time (seconds)
Module                                       User      System        Wall        Calls

--------------------------------------------------------------------------------------

**************************************************************************************
