
Host: fedora

Timers On : Tue Oct 15 15:58:43 2024
Timers Off: Tue Oct 15 15:58:43 2024

Wall Time:        0.38 seconds

                                                       Time (seconds)
Module                                       User      System        Wall        Calls

--------------------------------------------------------------------------------------

**************************************************************************************

Host: fedora

Timers On : Tue Oct 15 15:59:12 2024
Timers Off: Tue Oct 15 15:59:13 2024

Wall Time:        0.38 seconds

                                                       Time (seconds)
Module                                       User      System        Wall        Calls

--------------------------------------------------------------------------------------

**************************************************************************************

Host: fedora

Timers On : Tue Oct 15 15:59:42 2024
Timers Off: Tue Oct 15 15:59:43 2024

Wall Time:        0.38 seconds

                                                       Time (seconds)
Module                                       User      System        Wall        Calls

--------------------------------------------------------------------------------------

**************************************************************************************

Host: fedora

Timers On : Tue Oct 15 16:03:48 2024
Timers Off: Tue Oct 15 16:03:49 2024

Wall Time:        0.38 seconds

                                                       Time (seconds)
Module                                       User      System        Wall        Calls

--------------------------------------------------------------------------------------

**************************************************************************************

Host: fedora

Timers On : Tue Oct 15 16:04:41 2024
Timers Off: Tue Oct 15 16:04:41 2024

Wall Time:        0.38 seconds

                                                       Time (seconds)
Module                                       User      System        Wall        Calls

--------------------------------------------------------------------------------------

**************************************************************************************

Host: fedora

Timers On : Tue Oct 15 16:07:34 2024
Timers Off: Tue Oct 15 16:07:34 2024

Wall Time:        0.37 seconds

                                                       Time (seconds)
Module                                       User      System        Wall        Calls

--------------------------------------------------------------------------------------

**************************************************************************************

Host: fedora

Timers On : Tue Oct 15 16:08:02 2024
Timers Off: Tue Oct 15 16:08:02 2024

Wall Time:        0.38 seconds

                                                       Time (seconds)
Module                                       User      System        Wall        Calls

--------------------------------------------------------------------------------------

**************************************************************************************

Host: fedora

Timers On : Tue Oct 15 16:10:22 2024
Timers Off: Tue Oct 15 16:10:22 2024

Wall Time:        0.38 seconds

                                                       Time (seconds)
Module                                       User      System        Wall        Calls

--------------------------------------------------------------------------------------

**************************************************************************************

Host: fedora

Timers On : Tue Oct 15 16:10:54 2024
Timers Off: Tue Oct 15 16:10:54 2024

Wall Time:        0.37 seconds

                                                       Time (seconds)
Module                                       User      System        Wall        Calls

--------------------------------------------------------------------------------------

**************************************************************************************

Host: fedora

Timers On : Tue Oct 15 16:12:42 2024
Timers Off: Tue Oct 15 16:12:42 2024

Wall Time:        0.38 seconds

                                                       Time (seconds)
Module                                       User      System        Wall        Calls

--------------------------------------------------------------------------------------

**************************************************************************************

Host: fedora

Timers On : Tue Oct 15 16:14:51 2024
Timers Off: Tue Oct 15 16:14:51 2024

Wall Time:        0.38 seconds

                                                       Time (seconds)
Module                                       User      System        Wall        Calls

--------------------------------------------------------------------------------------

**************************************************************************************

Host: fedora

Timers On : Tue Oct 15 16:26:18 2024
Timers Off: Tue Oct 15 16:26:19 2024

Wall Time:        0.39 seconds

                                                       Time (seconds)
Module                                       User      System        Wall        Calls

--------------------------------------------------------------------------------------

**************************************************************************************

Host: fedora

Timers On : Tue Oct 15 16:26:57 2024
Timers Off: Tue Oct 15 16:26:58 2024

Wall Time:        0.42 seconds

                                                       Time (seconds)
Module                                       User      System        Wall        Calls

--------------------------------------------------------------------------------------

**************************************************************************************

Host: fedora

Timers On : Tue Oct 15 16:27:44 2024
Timers Off: Tue Oct 15 16:27:45 2024

Wall Time:        0.44 seconds

                                                       Time (seconds)
Module                                       User      System        Wall        Calls

--------------------------------------------------------------------------------------

**************************************************************************************

Host: fedora

Timers On : Tue Oct 15 16:28:19 2024
Timers Off: Tue Oct 15 16:28:19 2024

Wall Time:        0.52 seconds

                                                       Time (seconds)
Module                                       User      System        Wall        Calls
Libint2ERI::Libint2ERI              :      0.000u      0.000s      0.009w      1 calls

--------------------------------------------------------------------------------------
Libint2ERI::Libint2ERI              :      0.000u      0.000s      0.009w      1 calls

**************************************************************************************

Host: fedora

Timers On : Tue Oct 15 16:28:54 2024
Timers Off: Tue Oct 15 16:28:55 2024

Wall Time:        0.52 seconds

                                                       Time (seconds)
Module                                       User      System        Wall        Calls
Libint2ERI::Libint2ERI              :      0.017u      0.017s      0.010w      1 calls

--------------------------------------------------------------------------------------
Libint2ERI::Libint2ERI              :      0.017u      0.017s      0.010w      1 calls

**************************************************************************************

Host: fedora

Timers On : Tue Oct 15 16:49:30 2024
Timers Off: Tue Oct 15 16:49:31 2024

Wall Time:        0.52 seconds

                                                       Time (seconds)
Module                                       User      System        Wall        Calls
Libint2ERI::Libint2ERI              :      0.000u      0.000s      0.009w      1 calls

--------------------------------------------------------------------------------------
Libint2ERI::Libint2ERI              :      0.000u      0.000s      0.009w      1 calls

**************************************************************************************

Host: fedora

Timers On : Tue Oct 15 16:56:31 2024
Timers Off: Tue Oct 15 16:56:32 2024

Wall Time:        0.51 seconds

                                                       Time (seconds)
Module                                       User      System        Wall        Calls
Libint2ERI::Libint2ERI              :      0.000u      0.000s      0.009w      1 calls

--------------------------------------------------------------------------------------
Libint2ERI::Libint2ERI              :      0.000u      0.000s      0.009w      1 calls

**************************************************************************************

Host: fedora

Timers On : Fri Oct 18 06:48:44 2024
Timers Off: Fri Oct 18 06:48:46 2024

Wall Time:        1.16 seconds

                                                       Time (seconds)
Module                                       User      System        Wall        Calls
Total PK formation time             :      0.000u      0.000s      0.014w      1 calls
Libint2ERI::Libint2ERI              :      0.000u      0.000s      0.012w      3 calls
HF: Form core H                     :      0.000u      0.000s      0.004w      1 calls
HF: Form S/X                        :      0.000u      0.000s      0.000w      1 calls
HF: Guess                           :      0.033u      0.000s      0.020w      1 calls
SAD Guess                           :      0.033u      0.000s      0.019w      1 calls
HF: Form G                          :      0.000u      0.000s      0.000w     11 calls
JK: D                               :      0.000u      0.000s      0.000w     11 calls
JK: USO2AO                          :      0.000u      0.000s      0.000w     11 calls
JK: JK                              :      0.000u      0.000s      0.000w     11 calls
PK computes JK                      :      0.000u      0.000s      0.000w     11 calls
JK: AO2USO                          :      0.000u      0.000s      0.000w     11 calls
HF: Form F                          :      0.000u      0.000s      0.000w     11 calls
HF: Form D                          :      0.000u      0.000s      0.000w     11 calls
HF: DIIS                            :      0.083u      0.017s      0.081w     10 calls
HF: Form C                          :      0.000u      0.000s      0.002w     10 calls

--------------------------------------------------------------------------------------
Total PK formation time             :      0.000u      0.000s      0.014w      1 calls
| Libint2ERI::Libint2ERI            :      0.000u      0.000s      0.010w      2 calls
HF: Form core H                     :      0.000u      0.000s      0.004w      1 calls
HF: Form S/X                        :      0.000u      0.000s      0.000w      1 calls
HF: Guess                           :      0.033u      0.000s      0.020w      1 calls
| SAD Guess                         :      0.033u      0.000s      0.019w      1 calls
HF: Form G                          :      0.000u      0.000s      0.000w     11 calls
| JK: D                             :      0.000u      0.000s      0.000w     11 calls
| JK: USO2AO                        :      0.000u      0.000s      0.000w     11 calls
| JK: JK                            :      0.000u      0.000s      0.000w     11 calls
| | PK computes JK                  :      0.000u      0.000s      0.000w     11 calls
| JK: AO2USO                        :      0.000u      0.000s      0.000w     11 calls
HF: Form F                          :      0.000u      0.000s      0.000w     11 calls
HF: Form D                          :      0.000u      0.000s      0.000w     11 calls
HF: DIIS                            :      0.083u      0.017s      0.081w     10 calls
HF: Form C                          :      0.000u      0.000s      0.002w     10 calls
Libint2ERI::Libint2ERI              :      0.000u      0.000s      0.002w      1 calls

**************************************************************************************

Host: fedora

Timers On : Fri Oct 18 08:17:17 2024
Timers Off: Fri Oct 18 08:17:18 2024

Wall Time:        0.74 seconds

                                                       Time (seconds)
Module                                       User      System        Wall        Calls
Total PK formation time             :      0.000u      0.000s      0.009w      1 calls
Libint2ERI::Libint2ERI              :      0.017u      0.000s      0.008w      4 calls
HF: Form core H                     :      0.000u      0.000s      0.000w      1 calls
HF: Form S/X                        :      0.000u      0.000s      0.000w      1 calls
HF: Guess                           :      0.017u      0.017s      0.018w      1 calls
SAD Guess                           :      0.017u      0.017s      0.017w      1 calls
HF: Form G                          :      0.000u      0.000s      0.000w     11 calls
JK: D                               :      0.000u      0.000s      0.000w     11 calls
JK: USO2AO                          :      0.000u      0.000s      0.000w     11 calls
JK: JK                              :      0.000u      0.000s      0.000w     11 calls
PK computes JK                      :      0.000u      0.000s      0.000w     11 calls
JK: AO2USO                          :      0.000u      0.000s      0.000w     11 calls
HF: Form F                          :      0.000u      0.000s      0.000w     11 calls
HF: Form D                          :      0.000u      0.000s      0.000w     11 calls
HF: DIIS                            :      0.067u      0.000s      0.043w     10 calls
HF: Form C                          :      0.000u      0.000s      0.002w     10 calls

--------------------------------------------------------------------------------------
Total PK formation time             :      0.000u      0.000s      0.009w      1 calls
| Libint2ERI::Libint2ERI            :      0.000u      0.000s      0.005w      2 calls
HF: Form core H                     :      0.000u      0.000s      0.000w      1 calls
HF: Form S/X                        :      0.000u      0.000s      0.000w      1 calls
HF: Guess                           :      0.017u      0.017s      0.018w      1 calls
| SAD Guess                         :      0.017u      0.017s      0.017w      1 calls
HF: Form G                          :      0.000u      0.000s      0.000w     11 calls
| JK: D                             :      0.000u      0.000s      0.000w     11 calls
| JK: USO2AO                        :      0.000u      0.000s      0.000w     11 calls
| JK: JK                            :      0.000u      0.000s      0.000w     11 calls
| | PK computes JK                  :      0.000u      0.000s      0.000w     11 calls
| JK: AO2USO                        :      0.000u      0.000s      0.000w     11 calls
HF: Form F                          :      0.000u      0.000s      0.000w     11 calls
HF: Form D                          :      0.000u      0.000s      0.000w     11 calls
HF: DIIS                            :      0.067u      0.000s      0.043w     10 calls
HF: Form C                          :      0.000u      0.000s      0.002w     10 calls
Libint2ERI::Libint2ERI              :      0.017u      0.000s      0.002w      2 calls

**************************************************************************************

Host: fedora

Timers On : Fri Oct 18 12:36:55 2024
Timers Off: Fri Oct 18 12:36:56 2024

Wall Time:        0.92 seconds

                                                       Time (seconds)
Module                                       User      System        Wall        Calls
Total PK formation time             :      0.000u      0.017s      0.009w      1 calls
Libint2ERI::Libint2ERI              :      0.000u      0.017s      0.007w      4 calls
HF: Form core H                     :      0.000u      0.000s      0.000w      1 calls
HF: Form S/X                        :      0.000u      0.000s      0.000w      1 calls
HF: Guess                           :      0.017u      0.000s      0.018w      1 calls
SAD Guess                           :      0.017u      0.000s      0.017w      1 calls
HF: Form G                          :      0.000u      0.000s      0.000w     11 calls
JK: D                               :      0.000u      0.000s      0.000w     11 calls
JK: USO2AO                          :      0.000u      0.000s      0.000w     11 calls
JK: JK                              :      0.000u      0.000s      0.000w     11 calls
PK computes JK                      :      0.000u      0.000s      0.000w     11 calls
JK: AO2USO                          :      0.000u      0.000s      0.000w     11 calls
HF: Form F                          :      0.000u      0.000s      0.000w     11 calls
HF: Form D                          :      0.000u      0.000s      0.000w     11 calls
HF: DIIS                            :      0.050u      0.017s      0.068w     10 calls
HF: Form C                          :      0.000u      0.000s      0.002w     10 calls

--------------------------------------------------------------------------------------
Total PK formation time             :      0.000u      0.017s      0.009w      1 calls
| Libint2ERI::Libint2ERI            :      0.000u      0.017s      0.005w      2 calls
HF: Form core H                     :      0.000u      0.000s      0.000w      1 calls
HF: Form S/X                        :      0.000u      0.000s      0.000w      1 calls
HF: Guess                           :      0.017u      0.000s      0.018w      1 calls
| SAD Guess                         :      0.017u      0.000s      0.017w      1 calls
HF: Form G                          :      0.000u      0.000s      0.000w     11 calls
| JK: D                             :      0.000u      0.000s      0.000w     11 calls
| JK: USO2AO                        :      0.000u      0.000s      0.000w     11 calls
| JK: JK                            :      0.000u      0.000s      0.000w     11 calls
| | PK computes JK                  :      0.000u      0.000s      0.000w     11 calls
| JK: AO2USO                        :      0.000u      0.000s      0.000w     11 calls
HF: Form F                          :      0.000u      0.000s      0.000w     11 calls
HF: Form D                          :      0.000u      0.000s      0.000w     11 calls
HF: DIIS                            :      0.050u      0.017s      0.068w     10 calls
HF: Form C                          :      0.000u      0.000s      0.002w     10 calls
Libint2ERI::Libint2ERI              :      0.000u      0.000s      0.002w      2 calls

**************************************************************************************

Host: fedora

Timers On : Fri Oct 18 12:40:08 2024
Timers Off: Fri Oct 18 12:40:08 2024

Wall Time:        0.70 seconds

                                                       Time (seconds)
Module                                       User      System        Wall        Calls
Total PK formation time             :      0.000u      0.000s      0.009w      1 calls
Libint2ERI::Libint2ERI              :      0.017u      0.000s      0.007w      4 calls
HF: Form core H                     :      0.000u      0.000s      0.000w      1 calls
HF: Form S/X                        :      0.000u      0.000s      0.000w      1 calls
HF: Guess                           :      0.017u      0.017s      0.017w      1 calls
SAD Guess                           :      0.017u      0.017s      0.017w      1 calls
HF: Form G                          :      0.000u      0.000s      0.000w     11 calls
JK: D                               :      0.000u      0.000s      0.000w     11 calls
JK: USO2AO                          :      0.000u      0.000s      0.000w     11 calls
JK: JK                              :      0.000u      0.000s      0.000w     11 calls
PK computes JK                      :      0.000u      0.000s      0.000w     11 calls
JK: AO2USO                          :      0.000u      0.000s      0.000w     11 calls
HF: Form F                          :      0.000u      0.000s      0.000w     11 calls
HF: Form D                          :      0.000u      0.000s      0.000w     11 calls
HF: DIIS                            :      0.050u      0.017s      0.043w     10 calls
HF: Form C                          :      0.000u      0.000s      0.002w     10 calls

--------------------------------------------------------------------------------------
Total PK formation time             :      0.000u      0.000s      0.009w      1 calls
| Libint2ERI::Libint2ERI            :      0.000u      0.000s      0.005w      2 calls
HF: Form core H                     :      0.000u      0.000s      0.000w      1 calls
HF: Form S/X                        :      0.000u      0.000s      0.000w      1 calls
HF: Guess                           :      0.017u      0.017s      0.017w      1 calls
| SAD Guess                         :      0.017u      0.017s      0.017w      1 calls
HF: Form G                          :      0.000u      0.000s      0.000w     11 calls
| JK: D                             :      0.000u      0.000s      0.000w     11 calls
| JK: USO2AO                        :      0.000u      0.000s      0.000w     11 calls
| JK: JK                            :      0.000u      0.000s      0.000w     11 calls
| | PK computes JK                  :      0.000u      0.000s      0.000w     11 calls
| JK: AO2USO                        :      0.000u      0.000s      0.000w     11 calls
HF: Form F                          :      0.000u      0.000s      0.000w     11 calls
HF: Form D                          :      0.000u      0.000s      0.000w     11 calls
HF: DIIS                            :      0.050u      0.017s      0.043w     10 calls
HF: Form C                          :      0.000u      0.000s      0.002w     10 calls
Libint2ERI::Libint2ERI              :      0.017u      0.000s      0.002w      2 calls

**************************************************************************************

Host: fedora

Timers On : Fri Oct 18 12:40:27 2024
Timers Off: Fri Oct 18 12:40:28 2024

Wall Time:        0.71 seconds

                                                       Time (seconds)
Module                                       User      System        Wall        Calls
Total PK formation time             :      0.017u      0.000s      0.013w      1 calls
Libint2ERI::Libint2ERI              :      0.000u      0.000s      0.011w      4 calls
HF: Form core H                     :      0.000u      0.000s      0.000w      1 calls
HF: Form S/X                        :      0.000u      0.017s      0.000w      1 calls
HF: Guess                           :      0.017u      0.000s      0.020w      1 calls
SAD Guess                           :      0.017u      0.000s      0.019w      1 calls
HF: Form G                          :      0.000u      0.000s      0.000w     11 calls
JK: D                               :      0.000u      0.000s      0.000w     11 calls
JK: USO2AO                          :      0.000u      0.000s      0.000w     11 calls
JK: JK                              :      0.000u      0.000s      0.000w     11 calls
PK computes JK                      :      0.000u      0.000s      0.000w     11 calls
JK: AO2USO                          :      0.000u      0.000s      0.000w     11 calls
HF: Form F                          :      0.000u      0.000s      0.000w     11 calls
HF: Form D                          :      0.000u      0.000s      0.000w     11 calls
HF: DIIS                            :      0.067u      0.017s      0.048w     10 calls
HF: Form C                          :      0.033u      0.000s      0.002w     10 calls

--------------------------------------------------------------------------------------
Total PK formation time             :      0.017u      0.000s      0.013w      1 calls
| Libint2ERI::Libint2ERI            :      0.000u      0.000s      0.008w      2 calls
HF: Form core H                     :      0.000u      0.000s      0.000w      1 calls
HF: Form S/X                        :      0.000u      0.017s      0.000w      1 calls
HF: Guess                           :      0.017u      0.000s      0.020w      1 calls
| SAD Guess                         :      0.017u      0.000s      0.019w      1 calls
HF: Form G                          :      0.000u      0.000s      0.000w     11 calls
| JK: D                             :      0.000u      0.000s      0.000w     11 calls
| JK: USO2AO                        :      0.000u      0.000s      0.000w     11 calls
| JK: JK                            :      0.000u      0.000s      0.000w     11 calls
| | PK computes JK                  :      0.000u      0.000s      0.000w     11 calls
| JK: AO2USO                        :      0.000u      0.000s      0.000w     11 calls
HF: Form F                          :      0.000u      0.000s      0.000w     11 calls
HF: Form D                          :      0.000u      0.000s      0.000w     11 calls
HF: DIIS                            :      0.067u      0.017s      0.048w     10 calls
HF: Form C                          :      0.033u      0.000s      0.002w     10 calls
Libint2ERI::Libint2ERI              :      0.000u      0.000s      0.002w      2 calls

**************************************************************************************

Host: fedora

Timers On : Fri Oct 18 12:40:58 2024
Timers Off: Fri Oct 18 12:40:59 2024

Wall Time:        0.71 seconds

                                                       Time (seconds)
Module                                       User      System        Wall        Calls
Total PK formation time             :      0.000u      0.017s      0.009w      1 calls
Libint2ERI::Libint2ERI              :      0.000u      0.017s      0.008w      4 calls
HF: Form core H                     :      0.000u      0.000s      0.000w      1 calls
HF: Form S/X                        :      0.000u      0.000s      0.000w      1 calls
HF: Guess                           :      0.033u      0.000s      0.018w      1 calls
SAD Guess                           :      0.033u      0.000s      0.017w      1 calls
HF: Form G                          :      0.000u      0.000s      0.000w     11 calls
JK: D                               :      0.000u      0.000s      0.000w     11 calls
JK: USO2AO                          :      0.000u      0.000s      0.000w     11 calls
JK: JK                              :      0.000u      0.000s      0.000w     11 calls
PK computes JK                      :      0.000u      0.000s      0.000w     11 calls
JK: AO2USO                          :      0.000u      0.000s      0.000w     11 calls
HF: Form F                          :      0.000u      0.000s      0.000w     11 calls
HF: Form D                          :      0.000u      0.000s      0.000w     11 calls
HF: DIIS                            :      0.050u      0.017s      0.043w     10 calls
HF: Form C                          :      0.000u      0.000s      0.002w     10 calls

--------------------------------------------------------------------------------------
Total PK formation time             :      0.000u      0.017s      0.009w      1 calls
| Libint2ERI::Libint2ERI            :      0.000u      0.017s      0.005w      2 calls
HF: Form core H                     :      0.000u      0.000s      0.000w      1 calls
HF: Form S/X                        :      0.000u      0.000s      0.000w      1 calls
HF: Guess                           :      0.033u      0.000s      0.018w      1 calls
| SAD Guess                         :      0.033u      0.000s      0.017w      1 calls
HF: Form G                          :      0.000u      0.000s      0.000w     11 calls
| JK: D                             :      0.000u      0.000s      0.000w     11 calls
| JK: USO2AO                        :      0.000u      0.000s      0.000w     11 calls
| JK: JK                            :      0.000u      0.000s      0.000w     11 calls
| | PK computes JK                  :      0.000u      0.000s      0.000w     11 calls
| JK: AO2USO                        :      0.000u      0.000s      0.000w     11 calls
HF: Form F                          :      0.000u      0.000s      0.000w     11 calls
HF: Form D                          :      0.000u      0.000s      0.000w     11 calls
HF: DIIS                            :      0.050u      0.017s      0.043w     10 calls
HF: Form C                          :      0.000u      0.000s      0.002w     10 calls
Libint2ERI::Libint2ERI              :      0.000u      0.000s      0.003w      2 calls

**************************************************************************************

Host: fedora

Timers On : Fri Oct 18 12:41:47 2024
Timers Off: Fri Oct 18 12:41:48 2024

Wall Time:        0.86 seconds

                                                       Time (seconds)
Module                                       User      System        Wall        Calls
Total PK formation time             :      0.033u      0.000s      0.016w      2 calls
Libint2ERI::Libint2ERI              :      0.033u      0.000s      0.012w      7 calls
HF: Form core H                     :      0.000u      0.000s      0.001w      2 calls
HF: Form S/X                        :      0.000u      0.000s      0.000w      2 calls
HF: Guess                           :      0.033u      0.017s      0.035w      2 calls
SAD Guess                           :      0.033u      0.017s      0.034w      2 calls
HF: Form G                          :      0.017u      0.000s      0.001w     22 calls
JK: D                               :      0.000u      0.000s      0.000w     22 calls
JK: USO2AO                          :      0.000u      0.000s      0.000w     22 calls
JK: JK                              :      0.017u      0.000s      0.000w     22 calls
PK computes JK                      :      0.017u      0.000s      0.000w     22 calls
JK: AO2USO                          :      0.000u      0.000s      0.000w     22 calls
HF: Form F                          :      0.000u      0.000s      0.000w     22 calls
HF: Form D                          :      0.000u      0.000s      0.000w     22 calls
HF: DIIS                            :      0.100u      0.000s      0.066w     20 calls
HF: Form C                          :      0.017u      0.000s      0.004w     20 calls
trans_ints                          :      0.000u      0.000s      0.002w      1 calls
Trans (OV|OV)                       :      0.000u      0.000s      0.001w      1 calls
Sort chem -> phys                   :      0.000u      0.000s      0.000w      1 calls
Sort (OV|OV) -> <OO|VV>             :      0.000u      0.000s      0.000w      1 calls
Trans OEI                           :      0.000u      0.000s      0.000w      1 calls
Build Denominators                  :      0.000u      0.000s      0.000w      1 calls
T2(1)                               :      0.000u      0.000s      0.000w      1 calls
MP2 Energy                          :      0.000u      0.000s      0.000w      1 calls

--------------------------------------------------------------------------------------
Total PK formation time             :      0.033u      0.000s      0.016w      2 calls
| Libint2ERI::Libint2ERI            :      0.033u      0.000s      0.008w      4 calls
HF: Form core H                     :      0.000u      0.000s      0.001w      2 calls
HF: Form S/X                        :      0.000u      0.000s      0.000w      2 calls
HF: Guess                           :      0.033u      0.017s      0.035w      2 calls
| SAD Guess                         :      0.033u      0.017s      0.034w      2 calls
HF: Form G                          :      0.017u      0.000s      0.001w     22 calls
| JK: D                             :      0.000u      0.000s      0.000w     22 calls
| JK: USO2AO                        :      0.000u      0.000s      0.000w     22 calls
| JK: JK                            :      0.017u      0.000s      0.000w     22 calls
| | PK computes JK                  :      0.017u      0.000s      0.000w     22 calls
| JK: AO2USO                        :      0.000u      0.000s      0.000w     22 calls
HF: Form F                          :      0.000u      0.000s      0.000w     22 calls
HF: Form D                          :      0.000u      0.000s      0.000w     22 calls
HF: DIIS                            :      0.100u      0.000s      0.066w     20 calls
HF: Form C                          :      0.017u      0.000s      0.004w     20 calls
Libint2ERI::Libint2ERI              :      0.000u      0.000s      0.004w      3 calls
trans_ints                          :      0.000u      0.000s      0.002w      1 calls
| Trans (OV|OV)                     :      0.000u      0.000s      0.001w      1 calls
| Sort chem -> phys                 :      0.000u      0.000s      0.000w      1 calls
| | Sort (OV|OV) -> <OO|VV>         :      0.000u      0.000s      0.000w      1 calls
| Trans OEI                         :      0.000u      0.000s      0.000w      1 calls
| Build Denominators                :      0.000u      0.000s      0.000w      1 calls
T2(1)                               :      0.000u      0.000s      0.000w      1 calls
MP2 Energy                          :      0.000u      0.000s      0.000w      1 calls

**************************************************************************************

Host: fedora

Timers On : Fri Oct 18 06:50:17 2024
Timers Off: Fri Oct 18 12:44:21 2024

Wall Time:    21243.19 seconds

                                                       Time (seconds)
Module                                       User      System        Wall        Calls

--------------------------------------------------------------------------------------

**************************************************************************************

Host: asaxlogin3.asc.edu

Timers On : Mon Oct 21 09:15:36 2024
Timers Off: Mon Oct 21 09:15:36 2024

Wall Time:        0.42 seconds

                                                       Time (seconds)
Module                                       User      System        Wall        Calls

--------------------------------------------------------------------------------------

**************************************************************************************

Host: asaxlogin3.asc.edu

Timers On : Mon Oct 21 09:22:33 2024
Timers Off: Mon Oct 21 09:22:33 2024

Wall Time:        0.32 seconds

                                                       Time (seconds)
Module                                       User      System        Wall        Calls

--------------------------------------------------------------------------------------

**************************************************************************************

Host: asaxlogin3.asc.edu

Timers On : Tue Oct 22 14:29:41 2024
Timers Off: Tue Oct 22 14:29:43 2024

Wall Time:        2.15 seconds

                                                       Time (seconds)
Module                                       User      System        Wall        Calls

--------------------------------------------------------------------------------------

**************************************************************************************

Host: asaxlogin3.asc.edu

Timers On : Tue Oct 22 14:30:17 2024
Timers Off: Tue Oct 22 14:30:17 2024

Wall Time:        0.25 seconds

                                                       Time (seconds)
Module                                       User      System        Wall        Calls

--------------------------------------------------------------------------------------

**************************************************************************************
