
Host: fedora

Timers On : Tue Oct  8 10:27:25 2024
Timers Off: Tue Oct  8 10:27:25 2024

Wall Time:        0.90 seconds

                                                       Time (seconds)
Module                                       User      System        Wall        Calls

--------------------------------------------------------------------------------------

**************************************************************************************

Host: fedora

Timers On : Tue Oct  8 11:42:39 2024
Timers Off: Tue Oct  8 11:42:40 2024

Wall Time:        0.50 seconds

                                                       Time (seconds)
Module                                       User      System        Wall        Calls

--------------------------------------------------------------------------------------

**************************************************************************************

Host: fedora

Timers On : Tue Oct  8 11:42:54 2024
Timers Off: Tue Oct  8 11:42:55 2024

Wall Time:        0.53 seconds

                                                       Time (seconds)
Module                                       User      System        Wall        Calls

--------------------------------------------------------------------------------------

**************************************************************************************

Host: fedora

Timers On : Tue Oct  8 11:43:01 2024
Timers Off: Tue Oct  8 11:43:01 2024

Wall Time:        0.49 seconds

                                                       Time (seconds)
Module                                       User      System        Wall        Calls

--------------------------------------------------------------------------------------

**************************************************************************************

Host: fedora

Timers On : Tue Oct  8 11:43:28 2024
Timers Off: Tue Oct  8 11:43:28 2024

Wall Time:        0.55 seconds

                                                       Time (seconds)
Module                                       User      System        Wall        Calls

--------------------------------------------------------------------------------------

**************************************************************************************

Host: fedora

Timers On : Tue Oct  8 11:43:31 2024
Timers Off: Tue Oct  8 11:43:32 2024

Wall Time:        0.51 seconds

                                                       Time (seconds)
Module                                       User      System        Wall        Calls

--------------------------------------------------------------------------------------

**************************************************************************************

Host: fedora

Timers On : Tue Oct  8 11:48:38 2024
Timers Off: Tue Oct  8 11:48:39 2024

Wall Time:        0.62 seconds

                                                       Time (seconds)
Module                                       User      System        Wall        Calls

--------------------------------------------------------------------------------------

**************************************************************************************

Host: fedora

Timers On : Tue Oct  8 11:48:45 2024
Timers Off: Tue Oct  8 11:48:46 2024

Wall Time:        0.50 seconds

                                                       Time (seconds)
Module                                       User      System        Wall        Calls

--------------------------------------------------------------------------------------

**************************************************************************************

Host: fedora

Timers On : Tue Oct  8 11:53:12 2024
Timers Off: Tue Oct  8 11:53:13 2024

Wall Time:        0.56 seconds

                                                       Time (seconds)
Module                                       User      System        Wall        Calls

--------------------------------------------------------------------------------------

**************************************************************************************

Host: fedora

Timers On : Tue Oct  8 11:53:19 2024
Timers Off: Tue Oct  8 11:53:20 2024

Wall Time:        0.49 seconds

                                                       Time (seconds)
Module                                       User      System        Wall        Calls

--------------------------------------------------------------------------------------

**************************************************************************************

Host: fedora

Timers On : Tue Oct  8 11:59:51 2024
Timers Off: Tue Oct  8 11:59:52 2024

Wall Time:        0.52 seconds

                                                       Time (seconds)
Module                                       User      System        Wall        Calls

--------------------------------------------------------------------------------------

**************************************************************************************

Host: fedora

Timers On : Tue Oct  8 11:59:54 2024
Timers Off: Tue Oct  8 11:59:55 2024

Wall Time:        0.49 seconds

                                                       Time (seconds)
Module                                       User      System        Wall        Calls

--------------------------------------------------------------------------------------

**************************************************************************************
