
Host: fedora

Timers On : Tue Oct 15 15:58:43 2024
Timers Off: Tue Oct 15 15:58:43 2024

Wall Time:        0.38 seconds

                                                       Time (seconds)
Module                                       User      System        Wall        Calls

--------------------------------------------------------------------------------------

**************************************************************************************

Host: fedora

Timers On : Tue Oct 15 15:59:12 2024
Timers Off: Tue Oct 15 15:59:13 2024

Wall Time:        0.38 seconds

                                                       Time (seconds)
Module                                       User      System        Wall        Calls

--------------------------------------------------------------------------------------

**************************************************************************************

Host: fedora

Timers On : Tue Oct 15 15:59:42 2024
Timers Off: Tue Oct 15 15:59:43 2024

Wall Time:        0.38 seconds

                                                       Time (seconds)
Module                                       User      System        Wall        Calls

--------------------------------------------------------------------------------------

**************************************************************************************

Host: fedora

Timers On : Tue Oct 15 16:03:48 2024
Timers Off: Tue Oct 15 16:03:49 2024

Wall Time:        0.38 seconds

                                                       Time (seconds)
Module                                       User      System        Wall        Calls

--------------------------------------------------------------------------------------

**************************************************************************************

Host: fedora

Timers On : Tue Oct 15 16:04:41 2024
Timers Off: Tue Oct 15 16:04:41 2024

Wall Time:        0.38 seconds

                                                       Time (seconds)
Module                                       User      System        Wall        Calls

--------------------------------------------------------------------------------------

**************************************************************************************

Host: fedora

Timers On : Tue Oct 15 16:07:34 2024
Timers Off: Tue Oct 15 16:07:34 2024

Wall Time:        0.37 seconds

                                                       Time (seconds)
Module                                       User      System        Wall        Calls

--------------------------------------------------------------------------------------

**************************************************************************************

Host: fedora

Timers On : Tue Oct 15 16:08:02 2024
Timers Off: Tue Oct 15 16:08:02 2024

Wall Time:        0.38 seconds

                                                       Time (seconds)
Module                                       User      System        Wall        Calls

--------------------------------------------------------------------------------------

**************************************************************************************

Host: fedora

Timers On : Tue Oct 15 16:10:22 2024
Timers Off: Tue Oct 15 16:10:22 2024

Wall Time:        0.38 seconds

                                                       Time (seconds)
Module                                       User      System        Wall        Calls

--------------------------------------------------------------------------------------

**************************************************************************************

Host: fedora

Timers On : Tue Oct 15 16:10:54 2024
Timers Off: Tue Oct 15 16:10:54 2024

Wall Time:        0.37 seconds

                                                       Time (seconds)
Module                                       User      System        Wall        Calls

--------------------------------------------------------------------------------------

**************************************************************************************

Host: fedora

Timers On : Tue Oct 15 16:12:42 2024
Timers Off: Tue Oct 15 16:12:42 2024

Wall Time:        0.38 seconds

                                                       Time (seconds)
Module                                       User      System        Wall        Calls

--------------------------------------------------------------------------------------

**************************************************************************************

Host: fedora

Timers On : Tue Oct 15 16:14:51 2024
Timers Off: Tue Oct 15 16:14:51 2024

Wall Time:        0.38 seconds

                                                       Time (seconds)
Module                                       User      System        Wall        Calls

--------------------------------------------------------------------------------------

**************************************************************************************

Host: fedora

Timers On : Tue Oct 15 16:26:18 2024
Timers Off: Tue Oct 15 16:26:19 2024

Wall Time:        0.39 seconds

                                                       Time (seconds)
Module                                       User      System        Wall        Calls

--------------------------------------------------------------------------------------

**************************************************************************************

Host: fedora

Timers On : Tue Oct 15 16:26:57 2024
Timers Off: Tue Oct 15 16:26:58 2024

Wall Time:        0.42 seconds

                                                       Time (seconds)
Module                                       User      System        Wall        Calls

--------------------------------------------------------------------------------------

**************************************************************************************

Host: fedora

Timers On : Tue Oct 15 16:27:44 2024
Timers Off: Tue Oct 15 16:27:45 2024

Wall Time:        0.44 seconds

                                                       Time (seconds)
Module                                       User      System        Wall        Calls

--------------------------------------------------------------------------------------

**************************************************************************************

Host: fedora

Timers On : Tue Oct 15 16:28:19 2024
Timers Off: Tue Oct 15 16:28:19 2024

Wall Time:        0.52 seconds

                                                       Time (seconds)
Module                                       User      System        Wall        Calls
Libint2ERI::Libint2ERI              :      0.000u      0.000s      0.009w      1 calls

--------------------------------------------------------------------------------------
Libint2ERI::Libint2ERI              :      0.000u      0.000s      0.009w      1 calls

**************************************************************************************

Host: fedora

Timers On : Tue Oct 15 16:28:54 2024
Timers Off: Tue Oct 15 16:28:55 2024

Wall Time:        0.52 seconds

                                                       Time (seconds)
Module                                       User      System        Wall        Calls
Libint2ERI::Libint2ERI              :      0.017u      0.017s      0.010w      1 calls

--------------------------------------------------------------------------------------
Libint2ERI::Libint2ERI              :      0.017u      0.017s      0.010w      1 calls

**************************************************************************************

Host: fedora

Timers On : Tue Oct 15 16:49:30 2024
Timers Off: Tue Oct 15 16:49:31 2024

Wall Time:        0.52 seconds

                                                       Time (seconds)
Module                                       User      System        Wall        Calls
Libint2ERI::Libint2ERI              :      0.000u      0.000s      0.009w      1 calls

--------------------------------------------------------------------------------------
Libint2ERI::Libint2ERI              :      0.000u      0.000s      0.009w      1 calls

**************************************************************************************

Host: fedora

Timers On : Tue Oct 15 16:56:31 2024
Timers Off: Tue Oct 15 16:56:32 2024

Wall Time:        0.51 seconds

                                                       Time (seconds)
Module                                       User      System        Wall        Calls
Libint2ERI::Libint2ERI              :      0.000u      0.000s      0.009w      1 calls

--------------------------------------------------------------------------------------
Libint2ERI::Libint2ERI              :      0.000u      0.000s      0.009w      1 calls

**************************************************************************************
